   This run of MOLCAS is using the pymolcas driver

                             OPE
                             OPE          NMOL  CASOP  ENMOLC A   SO
                 OPE        NMOLC        AS  OP EN  MO LC     AS  OP
                OPENM       OL CA        SO  PE NM  OL CA     SOP EN
                OP EN      MO   LC       AS  OP ENMOL  CASO   PENMOL
                OP  EN     MO   LC       AS  OP EN     MO     LC ASO
               OP   E  NMOL  C  AS       OP  EN MO     LC     AS  OP
               OP  E   NMO   LC AS        OPEN  MO     LCASOP EN   M
               O  PEN   MO  LCA  SO
            OPE   NMO   L   CAS    OP
        OPENMOL  CASOP     ENMOL   CASOPE
     OPENMOLCA   SOPENMOLCASOPEN   MOLCASOPE
    OPENMOLCAS   OP           EN   MOL    CAS
    OPENMOLCAS       OP  ENM        O     LCA
    OPENMOLCAS    OPEN  MOLCASO     P  E  NMO
    OPENMOLCAS     OP               E  N  MOL
    OPENMOLCA   SO           PENM   O  L  CAS    OPEN    MO    LCAS
    OPENMOLCA   SOP           ENM   O  L  CAS   OP  EN  MOLC  AS   O
    OPENMOLCA   SOPE           NM      O  LCA   S      OP  EN MO
    OPENMOLC                AS         O  PEN   M      OL  CA  SOPE
    OPENMO        LCASOPE  NMOL        C  ASO   P      ENMOLC     AS
    OPE     NMO      LCA  SO     P     E   NM   OL  CA SO  PE N   MO
          OPENMOLCA            SOPE   NMO        LCAS  O    P  ENMO
     OPENMOLCASOPENMOLCASOPENMOLCASOPENMOLCA
        OPENMOLCASOPENMOLCASOPENMOLCASOPE
            OPENMOLCASOPENMOLCASOPENM
               OPENMOLCASOPENMOLCA        version: 26.02
                   OPENMOLCASO
                       OPE                tag: 684-gcd9c692f8

 OpenMolcas is free software; you can redistribute it and/or modify it
 under the terms of the GNU Lesser General Public License version 2.1.
 OpenMolcas is distributed in the hope that it will be useful, but it
 is provided "as is" and without any express or implied warranties.
 For more details see the full text of the license in the file
 LICENSE or in <http://www.gnu.org/licenses/>.

                 Copyright (C) The OpenMolcas Authors
           For the author list and the recommended citation,
                   consult the file CONTRIBUTORS.md

           *************************************************
           * pymolcas version py2.32                       *
           *   build 5fe1e42a8a423461f97be6f8128d9c45      *
           *   (after the EMIL interpreter by V. Veryazov) *
           *************************************************

configuration info
------------------
Host name: cpn-d01-33.core.ccr.buffalo.edu (Linux)
C Compiler ID: Intel
C flags: -std=gnu99 -gcc-sys
Fortran Compiler ID: Intel
Fortran flags: -fpp -i8 -heap-arrays
Definitions: _MOLCAS_;_I8_;_LINUX_;_MOLCAS_MPP_;_SCALAPACK_;_GA_
Parallel: ON (GA=ON)


   ----------------------------------------------------------------------------------------------------------------------------------------------------------------------------------------------
  |
  |           Project: 02_Ethylene_Geom_S0_CASSCF
  |    Submitted from: /vscratch/grp-cyberwksp21/sbakenhaster/wed_7_8/openmolcas_pyspawn/Tutorials_OpenMolcas/02_S0_Optimization_CASSCF
  |      Scratch area: /vscratch/grp-cyberwksp21/sbakenhaster/wed_7_8/openmolcas_pyspawn/Tutorials_OpenMolcas/02_S0_Optimization_CASSCF/scr_02_Ethylene_Geom_S0_CASSCF/02_Ethylene_Geom_S0_CASSCF
  |   Save outputs to: /vscratch/grp-cyberwksp21/sbakenhaster/wed_7_8/openmolcas_pyspawn/Tutorials_OpenMolcas/02_S0_Optimization_CASSCF
  |            Molcas: /projects/academic/cyberwksp21/SOFTWARE_2026/OpenMolcas
  |
  | Scratch area is empty
  |
  |    MOLCAS_DRIVER = /projects/academic/cyberwksp21/SOFTWARE_2026/OpenMolcas/pymolcas
  |   MOLCAS_MAXITER = 900
  |    MOLCAS_MOLDEN = YES
  |    MOLCAS_NNODES = 1
  |  MOLCAS_NODELIST = cpn-d02-08
  |    MOLCAS_NPROCS = 1
  |     MOLCAS_PRINT = NORMAL
  |    MOLCAS_SOURCE = /projects/academic/cyberwksp21/SOFTWARE_2026/OpenMolcas
  | MOLCAS_STRUCTURE = 0
  |      MOLCAS_TRAP = YES
  |
   ----------------------------------------------------------------------------------------------------------------------------------------------------------------------------------------------

++ ---------   Input file   ---------

&GATEWAY
  Coord
  6
  Ethylene
  C      -1.979720      0.748150      0.000000
  C      -0.655823      0.692790     -0.000000
  H      -2.587863     -0.148840      0.000000
  H      -2.510933      1.692731     -0.000000
  H      -0.124610     -0.251791     -0.000000
  H      -0.047680      1.589780      0.000000
  Basis = 6-31G*
  Group = NoSym

>>> DO WHILE

  &SEWARD

  >>> IF (ITER == 1)

    &SCF
     Charge = 0
     Spin = 1

  >>> END IF

  &RASSCF
                  Title = Ethylene SA-3-CAS(2,2)SCF
                  symmetry = 1
                  Nactel = 2 0 0
                  Spin = 1
                  Inactive = 7
                  Ras2 = 2
                  ciroot  =  3  3  1
                  RLXRoot = 1

  &SLAPAF

>>> END DO

&MCKINLEY
  ShowHessian

-- ----------------------------------

--- Start Module: gateway at Wed Jul  8 10:22:26 2026 ---
 
()()()()()()()()()()()()()()()()()()()()()()()()()()()()()()()()()()()()()()()()()()()()()()()()()()

                                              &GATEWAY

                       only a single process is used, running in SERIAL mode
                       available to each process: 2.0 GB of memory, 1 thread?
                                            pid: 1811205
()()()()()()()()()()()()()()()()()()()()()()()()()()()()()()()()()()()()()()()()()()()()()()()()()()
 
 
++    Symmetry information:
      ---------------------
 
                    Character Table for C1 
 
                             E  
                    a        1  x, y, xy, Rz, z, xz, Ry, yz, Rx, I
--
 
 
++    Basis set information:
      ----------------------
 
 
      Basis set label: C.6-31G**....
 
      Electronic valence basis set:
      ------------------
      Associated Effective Charge   6.000000 au
      Associated Actual Charge      6.000000 au
      Nuclear Model: Point charge
 
      Shell  nPrim  nBasis  Cartesian Spherical Contaminant
         s      10       3        X                  
         p       4       2        X                  
         d       1       1        X                  
 
 
      Basis set label: H.6-31G....
 
      Electronic valence basis set:
      ------------------
      Associated Effective Charge   1.000000 au
      Associated Actual Charge      1.000000 au
      Nuclear Model: Point charge
 
      Shell  nPrim  nBasis  Cartesian Spherical Contaminant
         s       4       2        X                  
--
 
 
++    Molecular structure info:
      -------------------------
 
                    ************************************************ 
                    **** Cartesian Coordinates / bohr, angstrom **** 
                    ************************************************ 
 
     Center  Label                x              y              z                     x              y              z
        1      C1              -3.741129       1.413799       0.000000             -1.979720       0.748150       0.000000
        2      C2              -1.239326       1.309183       0.000000             -0.655823       0.692790       0.000000
        3      H3              -4.890352      -0.281267       0.000000             -2.587863      -0.148840       0.000000
        4      H4              -4.744976       3.198798       0.000000             -2.510933       1.692731       0.000000
        5      H5              -0.235479      -0.475816       0.000000             -0.124610      -0.251791       0.000000
        6      H6              -0.090102       3.004249       0.000000             -0.047680       1.589780       0.000000
 
                    *************************************** 
                    *    InterNuclear Distances / bohr    * 
                    *************************************** 
 
               1 C1            2 C2            3 H3            4 H4            5 H5            6 H6    
    1 C1       0.000000
    2 C2       2.503989        0.000000
    3 H3       2.047916        3.982402        0.000000
    4 H4       2.047909        3.982490        3.483100        0.000000
    5 H5       3.982490        2.047909        4.658937        5.817074        0.000000
    6 H6       3.982402        2.047916        5.816959        4.658937        3.483100        0.000000
 
                    ******************************************* 
                    *    InterNuclear Distances / angstrom    * 
                    ******************************************* 
 
               1 C1            2 C2            3 H3            4 H4            5 H5            6 H6    
    1 C1       0.000000
    2 C2       1.325054        0.000000
    3 H3       1.083711        2.107396        0.000000
    4 H4       1.083707        2.107443        1.843177        0.000000
    5 H5       2.107443        1.083707        2.465403        3.078263        0.000000
    6 H6       2.107396        1.083711        3.078202        2.465403        1.843177        0.000000
 
                    ************************************** 
                    *    Valence Bond Angles / degree    * 
                    ************************************** 
                          Atom centers                 Phi
                      2 C2       1 C1       3 H3       121.74
                      2 C2       1 C1       4 H4       121.75
                      3 H3       1 C1       4 H4       116.51
                      1 C1       2 C2       5 H5       121.75
                      1 C1       2 C2       6 H6       121.74
                      5 H5       2 C2       6 H6       116.51
 
           ***************************************************************
           *              Valence Dihedral Angles / degree               *
           ***************************************************************
                    Atom centers                       Phi1     Phi2     Theta 
           3 H3       1 C1       2 C2       5 H5        121.74   121.75     0.00
           3 H3       1 C1       2 C2       6 H6        121.74   121.74  -180.00
           4 H4       1 C1       2 C2       5 H5        121.75   121.75  -180.00
           4 H4       1 C1       2 C2       6 H6        121.75   121.74     0.00
--
 
 
            Nuclear Potential Energy             33.47005806 au
 
--- Stop Module: gateway at Wed Jul  8 10:22:28 2026 /rc=_RC_ALL_IS_WELL_ ---
*** files: xmldump
    saved to directory /vscratch/grp-cyberwksp21/sbakenhaster/wed_7_8/openmolcas_pyspawn/Tutorials_OpenMolcas/02_S0_Optimization_CASSCF
--- Module gateway spent 2 seconds ---

--- Start Module: seward at Wed Jul  8 10:22:28 2026 ---
 
()()()()()()()()()()()()()()()()()()()()()()()()()()()()()()()()()()()()()()()()()()()()()()()()()()

                                              &SEWARD

                       only a single process is used, running in SERIAL mode
                       available to each process: 2.0 GB of memory, 1 thread?
                                            pid: 1811208
()()()()()()()()()()()()()()()()()()()()()()()()()()()()()()()()()()()()()()()()()()()()()()()()()()
 
               SEWARD will generate:
                  Multipole Moment integrals up to order  2
                  Kinetic Energy integrals
                  Nuclear Attraction integrals (point charge)
                  One-Electron Hamiltonian integrals
                  Velocity integrals
                  Orbital angular momentum around ( -2.4902   1.3615   0.0000 )
                  Velocity quadrupole around ( -2.4902   1.3615   0.0000 )
                  Two-Electron Repulsion integrals
 
                   Integrals are discarded if absolute value <: 1.00E-14
                   Integral cutoff threshold is set to       <: 1.00E-16
 
            Nuclear Potential Energy             33.47005806 au
 
 
      Basis set specifications :
      Symmetry species         a  
      Basis functions           38
 
 
      Input file to MOLDEN was generated!
 
--- Stop Module: seward at Wed Jul  8 10:22:30 2026 /rc=_RC_ALL_IS_WELL_ ---
*** files: 02_Ethylene_Geom_S0_CASSCF.GssOrb 02_Ethylene_Geom_S0_CASSCF.guessorb.h5 02_Ethylene_Geom_S0_CASSCF.guessorb.molden xmldump
    saved to directory /vscratch/grp-cyberwksp21/sbakenhaster/wed_7_8/openmolcas_pyspawn/Tutorials_OpenMolcas/02_S0_Optimization_CASSCF
--- Module seward spent 1 second ---

>>> IF (ITER == 1)

*** symbolic link created: INPORB -> 02_Ethylene_Geom_S0_CASSCF.GssOrb
--- Start Module: scf at Wed Jul  8 10:22:30 2026 ---
 
()()()()()()()()()()()()()()()()()()()()()()()()()()()()()()()()()()()()()()()()()()()()()()()()()()

                                                &SCF

                       only a single process is used, running in SERIAL mode
                       available to each process: 2.0 GB of memory, 1 thread?
                                            pid: 1811219
()()()()()()()()()()()()()()()()()()()()()()()()()()()()()()()()()()()()()()()()()()()()()()()()()()
 
++    Input section:
      --------------
 
      Header of the integral files:
      
       Integrals generated by Gateway/Seward, Wed Jul  8 10:22:29 2026
 
 
      Cartesian coordinates in angstrom:
      -----------------------------------------------------
      No.  Label        X            Y            Z        
      -----------------------------------------------------
       1   C1        -1.97972000   0.74815000   0.00000000
       2   C2        -0.65582300   0.69279000   0.00000000
       3   H3        -2.58786300  -0.14884000   0.00000000
       4   H4        -2.51093300   1.69273100   0.00000000
       5   H5        -0.12461000  -0.25179100   0.00000000
       6   H6        -0.04768000   1.58978000   0.00000000
      -----------------------------------------------------
      Nuclear repulsion energy =   33.47005806
--
 
++    Orbital specifications:
      -----------------------
 
      Symmetry species               1
                                     a
      Frozen orbitals                0
      Occupied orbitals              8
      Secondary orbitals            30
      Deleted orbitals               0
      Total number of orbitals      38
      Number of basis functions     38
--
 
      Molecular charge                           0.000
 
++    Optimization specifications:
      ----------------------------
 
      SCF Algorithm: Conventional
      Minimized density differences are used
      Number of density matrices in core                 5
      Maximum number of NDDO SCF iterations            400
      Maximum number of HF SCF iterations              400
      Threshold for SCF energy change             1.00E-09
      Threshold for density matrix                1.00E-04
      Threshold for Fock matrix                   1.50E-04
      Threshold for linear dependence             1.00E-09
      Threshold at which DIIS is turned on        1.50E-01
      Maximum depth in the DIIS procedure                5
      Maximum depth in the BFGS Hessian update          30
      Threshold at which QNR/C2DIIS is turned on  7.50E-02
      Threshold for Norm(delta) (QNR/C2DIIS)      1.00E-03
      All orbitals punched on: SCFORB
--
 
      Input vectors read from INPORB
      Orbital file label: *Guess orbitals
 
 
++ Convergence information
                                   SCF        iterations: Energy and convergence statistics
 
Iter     Tot. SCF        One-elec.       Two-elec.     Energy      Max Dij or  Max Fij      DNorm      TNorm      AccCon     Time
         Energy          Energy          Energy        Change      Delta Norm                                                in Sec.
   1   -77.870063755  -168.053191130    56.713069311   0.00E+00    1.85E-01*   1.32E-01*    4.01E+00   8.16E+01   None         0.
   2   -78.015984038  -170.962300380    59.476258278  -1.46E-01*   1.19E-01*   6.82E-02*    8.36E-01   8.34E+01   EDIIS        0.
   3   -78.029599568  -169.987657473    58.487999841  -1.36E-02*   1.82E-02*   1.53E-02*    2.72E-01   8.27E+01   c2DIIS       0.
   4   -78.031325384  -170.299670237    58.798286789  -1.73E-03*   6.48E-03*   6.29E-03*    4.33E-02   8.29E+01   QNRc2DIIS    0.
   5   -78.031441082  -170.258878988    58.757379842  -1.16E-04*   2.96E-03*   1.50E-03*    3.55E-03   8.29E+01   QNRc2DIIS    0.
   6   -78.031455223  -170.273682979    58.772169693  -1.41E-05*   2.38E-04    1.76E-04*    7.22E-04   8.29E+01   QNRc2DIIS    0.
   7   -78.031455422  -170.271326519    58.769813033  -1.99E-07*   5.26E-05    2.91E-05     1.50E-04   8.29E+01   QNRc2DIIS    0.
   8   -78.031455428  -170.271329348    58.769815856  -5.99E-09*   5.47E-06    2.53E-06     4.61E-05   8.29E+01   QNRc2DIIS    0.
   9   -78.031455428  -170.271334993    58.769821501  -4.50E-11    2.19E-07    1.16E-07     9.13E-06   8.29E+01   QNRc2DIIS    0.
 
       Convergence after   9 Iterations
--
 
 *****************************************************************************************************************************
 *                                                                                                                           *
 *                                             SCF/KS-DFT Program, Final results                                             *
 *                                                                                                                           *
 *                                                                                                                           *
 *                                                                                                                           *
 *                                                       Final Results                                                       *
 *                                                                                                                           *
 *****************************************************************************************************************************
 
::    Total SCF energy                                -78.0314554281
      One-electron energy                            -170.2713349932
      Two-electron energy                              58.7698215013
      Nuclear repulsion energy                         33.4700580638
      Kinetic energy (interpolated)                    77.9099109958
      Virial theorem                                    1.0015600638
      Total spin, S(S+1)                                0.0000000000
      Total spin, S                                     0.0000000000
      Max non-diagonal density matrix element           0.0000002617
      Max non-diagonal Fock matrix element              0.0000000231
 
 
      All orbitals with orbital energies smaller than  E(LUMO)+0.5 are printed
 
++    Molecular orbitals:
      -------------------
 
      Title: SCF orbitals

      Molecular orbitals for symmetry species 1: a  
 
          Orbital            1         2         3         4         5         6         7         8         9        10    
          Energy          -11.2276  -11.2259   -1.0297   -0.7873   -0.6375   -0.5839   -0.5011   -0.3727    0.1819    0.2649
          Occ. No.          2.0000    2.0000    2.0000    2.0000    2.0000    2.0000    2.0000    2.0000    0.0000    0.0000
 
        1 C1     1s         0.7038   -0.7042   -0.1575    0.1195    0.0000    0.0120    0.0000   -0.0000    0.0000    0.0779
        2 C1     2s         0.0192   -0.0197    0.2981   -0.2313   -0.0000   -0.0284   -0.0000    0.0000   -0.0000   -0.0803
        3 C1     *s        -0.0053    0.0111    0.2300   -0.2351   -0.0000    0.0158   -0.0000    0.0000   -0.0000   -1.4820
        4 C1     2px       -0.0001   -0.0002    0.1071    0.1674    0.0134   -0.4067   -0.0127    0.0000    0.0000    0.1464
        5 C1     *px        0.0007    0.0017    0.0065    0.0672    0.0054   -0.1540   -0.0083    0.0000   -0.0000    0.6454
        6 C1     2py        0.0000    0.0000   -0.0045   -0.0070    0.3210    0.0170   -0.3028    0.0000   -0.0000   -0.0061
        7 C1     *py       -0.0000   -0.0001   -0.0003   -0.0028    0.1292    0.0065   -0.1973   -0.0000   -0.0000   -0.0269
        8 C1     2pz        0.0000    0.0000    0.0000    0.0000    0.0000   -0.0000   -0.0000    0.3749   -0.3411   -0.0000
        9 C1     *pz        0.0000   -0.0000   -0.0000   -0.0000    0.0000   -0.0000    0.0000    0.3050   -0.7422   -0.0000
       10 C1     *200      -0.0008    0.0006    0.0099   -0.0007   -0.0005   -0.0066    0.0015   -0.0000    0.0000   -0.0022
       11 C1     *110      -0.0000    0.0000   -0.0006   -0.0011   -0.0130    0.0018    0.0369    0.0000    0.0000    0.0007
       12 C1     *101       0.0000   -0.0000   -0.0000   -0.0000    0.0000    0.0000    0.0000    0.0255    0.0238   -0.0000
       13 C1     *020      -0.0009    0.0007    0.0027   -0.0137    0.0005    0.0153   -0.0015   -0.0000   -0.0000    0.0063
       14 C1     *011      -0.0000   -0.0000    0.0000   -0.0000   -0.0000    0.0000    0.0000   -0.0011   -0.0010    0.0000
       15 C1     *002      -0.0011    0.0010   -0.0074    0.0063    0.0000   -0.0008   -0.0000   -0.0000    0.0000    0.0026
       16 C2     1s         0.7038    0.7042   -0.1575   -0.1195   -0.0000    0.0120    0.0000    0.0000   -0.0000    0.0779
       17 C2     2s         0.0192    0.0197    0.2981    0.2313    0.0000   -0.0284   -0.0000    0.0000    0.0000   -0.0803
       18 C2     *s        -0.0053   -0.0111    0.2300    0.2351    0.0000    0.0158   -0.0000   -0.0000    0.0000   -1.4820
       19 C2     2px        0.0001   -0.0002   -0.1071    0.1674    0.0134    0.4067    0.0127    0.0000   -0.0000   -0.1464
       20 C2     *px       -0.0007    0.0017   -0.0065    0.0672    0.0054    0.1540    0.0083    0.0000   -0.0000   -0.6454
       21 C2     2py       -0.0000    0.0000    0.0045   -0.0070    0.3210   -0.0170    0.3028   -0.0000    0.0000    0.0061
       22 C2     *py        0.0000   -0.0001    0.0003   -0.0028    0.1292   -0.0065    0.1973    0.0000    0.0000    0.0269
       23 C2     2pz       -0.0000    0.0000    0.0000    0.0000   -0.0000    0.0000   -0.0000    0.3749    0.3411    0.0000
       24 C2     *pz        0.0000    0.0000    0.0000    0.0000   -0.0000    0.0000   -0.0000    0.3050    0.7422    0.0000
       25 C2     *200      -0.0008   -0.0006    0.0099    0.0007    0.0005   -0.0066    0.0015    0.0000    0.0000   -0.0022
       26 C2     *110      -0.0000   -0.0000   -0.0006    0.0011    0.0130    0.0018    0.0369    0.0000    0.0000    0.0007
       27 C2     *101       0.0000    0.0000   -0.0000    0.0000    0.0000   -0.0000   -0.0000   -0.0255    0.0238   -0.0000
       28 C2     *020      -0.0009   -0.0007    0.0027    0.0137   -0.0005    0.0153   -0.0015   -0.0000   -0.0000    0.0063
       29 C2     *011      -0.0000   -0.0000    0.0000   -0.0000   -0.0000    0.0000    0.0000    0.0011   -0.0010    0.0000
       30 C2     *002      -0.0011   -0.0010   -0.0074   -0.0063   -0.0000   -0.0008   -0.0000    0.0000    0.0000    0.0026
       31 H3     1s        -0.0001    0.0001    0.0823   -0.1463   -0.1573    0.1250    0.1890    0.0000   -0.0000    0.0141
       32 H3     *s         0.0015   -0.0015    0.0160   -0.0671   -0.1082    0.1012    0.1559   -0.0000   -0.0000    1.0310
       33 H4     1s        -0.0001    0.0001    0.0823   -0.1463    0.1573    0.1251   -0.1890    0.0000    0.0000    0.0141
       34 H4     *s         0.0015   -0.0015    0.0160   -0.0671    0.1082    0.1012   -0.1558    0.0000    0.0000    1.0310
       35 H5     1s        -0.0001   -0.0001    0.0823    0.1463   -0.1573    0.1251   -0.1890   -0.0000   -0.0000    0.0141
       36 H5     *s         0.0015    0.0015    0.0160    0.0671   -0.1082    0.1012   -0.1558    0.0000   -0.0000    1.0310
       37 H6     1s        -0.0001   -0.0001    0.0823    0.1463    0.1573    0.1250    0.1890   -0.0000   -0.0000    0.0141
       38 H6     *s         0.0015    0.0015    0.0160    0.0671    0.1082    0.1012    0.1559   -0.0000   -0.0000    1.0310
 
          Orbital           11        12        13        14        15    
          Energy            0.2911    0.3082    0.3917    0.4935    0.6647
          Occ. No.          0.0000    0.0000    0.0000    0.0000    0.0000
 
        1 C1     1s        -0.0000    0.1083    0.0000   -0.0670   -0.0225
        2 C1     2s         0.0000   -0.1029    0.0000    0.0012   -0.2162
        3 C1     *s         0.0003   -1.9216   -0.0001    3.1473   -0.1866
        4 C1     2px        0.0106    0.1002   -0.0104    0.1295   -0.5503
        5 C1     *px        0.0332    0.1609   -0.0787    3.0075    1.0316
        6 C1     2py        0.2535   -0.0041   -0.2484   -0.0054    0.0230
        7 C1     *py        0.7970   -0.0066   -1.8844   -0.1258   -0.0431
        8 C1     2pz       -0.0000   -0.0000   -0.0000    0.0000   -0.0000
        9 C1     *pz       -0.0000    0.0000    0.0000   -0.0000    0.0000
       10 C1     *200       0.0009    0.0024    0.0007    0.0013   -0.0446
       11 C1     *110       0.0226   -0.0002    0.0176    0.0010    0.0053
       12 C1     *101       0.0000   -0.0000    0.0000   -0.0000    0.0000
       13 C1     *020      -0.0009   -0.0006   -0.0007    0.0134    0.0184
       14 C1     *011      -0.0000    0.0000    0.0000   -0.0000   -0.0000
       15 C1     *002      -0.0000    0.0063   -0.0000   -0.0069   -0.0005
       16 C2     1s         0.0000   -0.1083    0.0000    0.0670   -0.0225
       17 C2     2s        -0.0000    0.1029    0.0000   -0.0012   -0.2162
       18 C2     *s        -0.0003    1.9216   -0.0001   -3.1473   -0.1866
       19 C2     2px        0.0106    0.1002    0.0104    0.1295    0.5503
       20 C2     *px        0.0332    0.1609    0.0787    3.0075   -1.0316
       21 C2     2py        0.2535   -0.0041    0.2484   -0.0054   -0.0230
       22 C2     *py        0.7970   -0.0066    1.8844   -0.1258    0.0431
       23 C2     2pz       -0.0000    0.0000   -0.0000    0.0000    0.0000
       24 C2     *pz        0.0000   -0.0000   -0.0000   -0.0000   -0.0000
       25 C2     *200      -0.0009   -0.0024    0.0007   -0.0013   -0.0446
       26 C2     *110      -0.0226    0.0002    0.0176   -0.0010    0.0053
       27 C2     *101       0.0000    0.0000   -0.0000    0.0000    0.0000
       28 C2     *020       0.0009    0.0006   -0.0007   -0.0134    0.0184
       29 C2     *011       0.0000   -0.0000    0.0000   -0.0000    0.0000
       30 C2     *002       0.0000   -0.0063   -0.0000    0.0069   -0.0005
       31 H3     1s         0.0424    0.0178    0.0403    0.0801    0.0937
       32 H3     *s         1.0860    1.0714   -1.6191    0.5783    0.0601
       33 H4     1s        -0.0424    0.0178   -0.0403    0.0801    0.0937
       34 H4     *s        -1.0863    1.0710    1.6192    0.5784    0.0603
       35 H5     1s         0.0424   -0.0178   -0.0403   -0.0801    0.0937
       36 H5     *s         1.0863   -1.0710    1.6192   -0.5784    0.0603
       37 H6     1s        -0.0424   -0.0178    0.0403   -0.0801    0.0937
       38 H6     *s        -1.0860   -1.0714   -1.6191   -0.5783    0.0601
--
 
 
++    Molecular charges:
      ------------------
 
      Mulliken charges per centre and basis function type
      ---------------------------------------------------
 
                C1      C2      H3      H4      H5      H6    
      1s       1.9965  1.9965  0.5254  0.5254  0.5254  0.5254
      2s       0.6611  0.6611  0.0000  0.0000  0.0000  0.0000
      2px      0.7585  0.7585  0.0000  0.0000  0.0000  0.0000
      2pz      0.5065  0.5065  0.0000  0.0000  0.0000  0.0000
      2py      0.7105  0.7105  0.0000  0.0000  0.0000  0.0000
      *s       0.5775  0.5775  0.2981  0.2981  0.2981  0.2981
      *px      0.2314  0.2314  0.0000  0.0000  0.0000  0.0000
      *pz      0.4855  0.4855  0.0000  0.0000  0.0000  0.0000
      *py      0.3640  0.3640  0.0000  0.0000  0.0000  0.0000
      *200     0.0248  0.0248  0.0000  0.0000  0.0000  0.0000
      *110     0.0191  0.0191  0.0000  0.0000  0.0000  0.0000
      *101     0.0079  0.0079  0.0000  0.0000  0.0000  0.0000
      *020     0.0299  0.0299  0.0000  0.0000  0.0000  0.0000
      *011     0.0000  0.0000  0.0000  0.0000  0.0000  0.0000
      *002    -0.0203 -0.0203  0.0000  0.0000  0.0000  0.0000
      Total    6.3530  6.3530  0.8235  0.8235  0.8235  0.8235
 
      N-E     -0.3530 -0.3530  0.1765  0.1765  0.1765  0.1765
 
      Total electronic charge=   16.000000
 
      Total            charge=   -0.000000
--
 
 
++    Molecular properties:
      ---------------------
 
      Charge (e):
                      =   -0.0000
      Dipole Moment (debye):
      Origin of the operator (angstrom)=   -1.3178    0.7205    0.0000
                   X= -4.5150E-15               Y=  1.4956E-14               Z=  1.0397E-15           Total=  1.5657E-14
      Quadrupole Moment (debye*angstrom):
      Origin of the operator (angstrom)=   -1.3178    0.7205    0.0000
                  XX= -1.1996E+01              XY= -1.0477E-02              XZ= -1.2752E-15              YY= -1.2242E+01
                  YZ=  4.8509E-16              ZZ= -1.5443E+01
      In traceless form (debye*angstrom)
                  XX=  1.8459E+00              XY= -1.5715E-02              XZ= -1.9128E-15              YY=  1.4775E+00
                  YZ=  7.2763E-16              ZZ= -3.3233E+00
--
 
 
      Input file to MOLDEN was generated!
 
 ###############################################################################
 ###############################################################################
 ###                                                                         ###
 ###                                                                         ###
 ###    WARNING: RunFile label nBas                                          ###
 ###    was used       72 times                                              ###
 ###                                                                         ###
 ###                                                                         ###
 ###############################################################################
 ###############################################################################
--- Stop Module: scf at Wed Jul  8 10:22:31 2026 /rc=_RC_ALL_IS_WELL_ ---
*** files: 02_Ethylene_Geom_S0_CASSCF.scf.molden 02_Ethylene_Geom_S0_CASSCF.ScfOrb 02_Ethylene_Geom_S0_CASSCF.scf.h5 xmldump
    saved to directory /vscratch/grp-cyberwksp21/sbakenhaster/wed_7_8/openmolcas_pyspawn/Tutorials_OpenMolcas/02_S0_Optimization_CASSCF
--- Module scf spent 1 second ---

*** symbolic link created: INPORB -> 02_Ethylene_Geom_S0_CASSCF.ScfOrb
--- Start Module: rasscf at Wed Jul  8 10:22:31 2026 ---
 
()()()()()()()()()()()()()()()()()()()()()()()()()()()()()()()()()()()()()()()()()()()()()()()()()()

                                              &RASSCF

                       only a single process is used, running in SERIAL mode
                       available to each process: 2.0 GB of memory, 1 thread?
                                            pid: 1811222
()()()()()()()()()()()()()()()()()()()()()()()()()()()()()()()()()()()()()()()()()()()()()()()()()()
 
 
      Header of the ONEINT file:
      --------------------------
      
      Integrals generated by Gateway/Seward, Wed Jul  8 10:22:29 2026
 
 
      OrdInt status: non-squared
 
 
      Cartesian coordinates in angstrom:
      -----------------------------------------------------
      No.  Label        X            Y            Z        
      -----------------------------------------------------
       1   C1        -1.97972000   0.74815000   0.00000000
       2   C2        -0.65582300   0.69279000   0.00000000
       3   H3        -2.58786300  -0.14884000   0.00000000
       4   H4        -2.51093300   1.69273100   0.00000000
       5   H5        -0.12461000  -0.25179100   0.00000000
       6   H6        -0.04768000   1.58978000   0.00000000
      -----------------------------------------------------
      Nuclear repulsion energy =   33.47005806
 
++    Wave function specifications:
      -----------------------------
 
      Number of closed shell electrons          14
      Number of electrons in active shells       2
      Max number of holes in RAS1 space          0
      Max nr of electrons in RAS3 space          0
      Number of inactive orbitals                7
      Number of active orbitals                  2
      Number of secondary orbitals              29
      Spin quantum number                      0.0
      State symmetry                             1
--
 
++    Orbital specifications:
      -----------------------
 
      Symmetry species                           1
                                                 a
      Frozen orbitals                            0
      Inactive orbitals                          7
      Active orbitals                            2
      RAS1 orbitals                              0
      RAS2 orbitals                              2
      RAS3 orbitals                              0
      Secondary orbitals                        29
      Deleted orbitals                           0
      Number of basis functions                 38
--
 
++    CI expansion specifications:
      ----------------------------
 
      Number of CSFs                             3
      Number of spin combinations                3
      Number of determinants                     4
      Number of root(s) required                 3
      Root chosen for geometry opt.              1
      CI roots used                              1     2     3
      weights                                0.333 0.333 0.333
      highest root included in the CI            3
      max. size of the explicit Hamiltonian      3
--
 
++    Optimization specifications:
      ----------------------------
 
      RASSCF algorithm: Conventional
      Maximum number of macro iterations       200
      Maximum number of SX iterations          100
      Threshold for RASSCF energy            1.000E-08
      Threshold for max MO rotation          1.000E-01
      Threshold for max BLB element          1.000E-04
      Level shift parameter                  5.000E-01
      Make Quasi-Newton update
--
 
      Orbitals from runfile: scf orbitals
      The MO-coefficients are taken from scf orbitals on runfile
 
      Total molecular charge    0.00
 
      ************************************************************************************************************************
      *                                                                                                                      *
      *                                            Wave function control section                                             *
      *                                                                                                                      *
      ************************************************************************************************************************
 
 
                                         RASSCF iterations: Energy and convergence statistics
                                         ----------------------------------------------------
 
      Iter CI   SX   CI       RASSCF       Energy    max ROT     max BLB   max BLB  Level Ln srch  Step   QN   Walltime
          iter iter root      energy       change     param      element    value   shift minimum  type update hh:mm:ss
 Nr of preliminary CI iterations:   1
        1   1    5    0   -77.72484322    0.00E+00   3.40E-02    6  15 1 -4.77E-02*  0.18   0.00    SX    NO    0:00:00
        2   1    4    0   -77.73078090   -5.94E-03*  1.42E-02    8  17 1  1.43E-02*  0.19   0.00    SX    NO    0:00:00
        3   1    4    0   -77.73119521   -4.14E-04* -5.01E-03    9  19 1  6.01E-03*  0.19   0.00    SX    NO    0:00:00
        4   1    4    0   -77.73124223   -4.70E-05* -1.42E-03    9  19 1  1.71E-03*  0.19   0.00    SX    NO    0:00:00
        5   1    3    0   -77.73124937   -7.14E-06* -1.48E-03    9  19 1  1.05E-03*  0.19   1.40    QN   YES    0:00:00
        6   1    3    0   -77.73125104   -1.68E-06*  6.89E-05    8  17 1 -7.82E-05   0.19   1.03    QN   YES    0:00:00
        7   1    3    0   -77.73125106   -2.12E-08*  3.42E-05    5  11 1  2.77E-05   0.19   1.43    QN   YES    0:00:00
        8   1    2    0   -77.73125107   -2.55E-09  -1.05E-06    6  15 1 -2.20E-06   0.19   1.02    QN   YES    0:00:00
      Convergence after  8 iterations
        9   1    2    0   -77.73125107   -1.75E-11  -1.05E-06    6  15 1 -1.02E-06   0.19   1.02    QN   YES    0:00:00
 
      ************************************************************************************************************************
                                                      Wave function printout:
                       occupation of active orbitals, and spin coupling of open shells (u,d: Spin up or down)
      ************************************************************************************************************************
 
      Note: transformation to natural orbitals
      has been made, which may change the order of the CSFs.
 
      printout of CI-coefficients larger than  0.05 for root  1
      energy=     -78.048347
      conf/sym  11     Coeff  Weight
             1  20   0.39405 0.15527
             2  ud  -0.83034 0.68946
             3  02   0.39405 0.15527
 
      printout of CI-coefficients larger than  0.05 for root  2
      energy=     -77.668707
      conf/sym  11     Coeff  Weight
             1  20  -0.70711 0.50000
             3  02   0.70711 0.50000
 
      printout of CI-coefficients larger than  0.05 for root  3
      energy=     -77.476699
      conf/sym  11     Coeff  Weight
             1  20   0.58714 0.34473
             2  ud   0.55726 0.31054
             3  02   0.58714 0.34473
 
      Natural orbitals and occupation numbers for root  1
      sym 1:   0.074568   1.925432
 
      Natural orbitals and occupation numbers for root  2
      sym 1:   1.000000   1.000000
 
      Natural orbitals and occupation numbers for root  3
      sym 1:   1.925432   0.074568
 
      ************************************************************************************************************************
      *                                                                                                                      *
      *                                                    Final results                                                     *
      *                                                                                                                      *
      ************************************************************************************************************************
 
 
++    Final optimization conditions:
      ------------------------------
 
      Average CI energy                             -77.73125107
      RASSCF energy for state  1                    -78.04834686
      Super-CI energy                                -0.00000000
      RASSCF energy change                           -0.00000000
      Max change in MO coefficients              -2.344E-06
      Max non-diagonal density matrix element    -1.047E-06
      Maximum BLB matrix element                 -1.015E-06
      (orbital pair   6,  15 in symmetry   1)
      Norm of electronic gradient            1.358E-01
--
 
 
      Final state energy(ies):
      ------------------------
 
::    RASSCF root number  1 Total energy:    -78.04834686
::    RASSCF root number  2 Total energy:    -77.66870685
::    RASSCF root number  3 Total energy:    -77.47669949
 
++    Molecular orbitals:
      -------------------
 
      Pseudonatural active orbitals and approximate occupation numbers
 
 
 
 
      Molecular orbitals for symmetry species 1: a  
 
 
      Orbital                 1         2         3         4         5         6         7         8         9
      Energy           -11.2444  -11.2429   -1.0454   -0.7955   -0.6509   -0.5993   -0.5079   -0.0959   -0.0959
      Occ. No.           2.0000    2.0000    2.0000    2.0000    2.0000    2.0000    2.0000    1.0000    1.0000
 
     1 C1     1s         0.7037   -0.7042   -0.1573    0.1216   -0.0000    0.0056    0.0000   -0.0000    0.0000
     2 C1     2s         0.0194   -0.0198    0.3057   -0.2321    0.0000   -0.0216   -0.0000    0.0000   -0.0000
     3 C1     *s        -0.0052    0.0106    0.2166   -0.2830   -0.0000    0.0318   -0.0000    0.0000   -0.0000
     4 C1     2px        0.0002   -0.0008    0.1256    0.1628    0.0137   -0.4082   -0.0130    0.0000   -0.0000
     5 C1     *px        0.0005    0.0017    0.0098    0.0437    0.0058   -0.1449   -0.0089    0.0000   -0.0000
     6 C1     2py       -0.0000    0.0000   -0.0053   -0.0068    0.3270    0.0171   -0.3096    0.0000   -0.0000
     7 C1     *py       -0.0000   -0.0001   -0.0004   -0.0018    0.1383    0.0061   -0.2133   -0.0000    0.0000
     8 C1     2pz        0.0000    0.0000    0.0000    0.0000    0.0000   -0.0000   -0.0000   -0.0144   -0.5231
     9 C1     *pz        0.0000   -0.0000   -0.0000   -0.0000    0.0000   -0.0000    0.0000   -0.2669   -0.7142
    10 C1     *200      -0.0008    0.0004    0.0116    0.0014   -0.0004   -0.0098    0.0014   -0.0000    0.0000
    11 C1     *110      -0.0000    0.0000   -0.0007   -0.0013   -0.0092    0.0022    0.0339    0.0000    0.0000
    12 C1     *101       0.0000   -0.0000   -0.0000   -0.0000    0.0000    0.0000    0.0000    0.0352   -0.0115
    13 C1     *020      -0.0010    0.0008    0.0032   -0.0139    0.0004    0.0161   -0.0014   -0.0000    0.0000
    14 C1     *011      -0.0000   -0.0000    0.0000   -0.0000   -0.0000    0.0000    0.0000   -0.0015    0.0005
    15 C1     *002      -0.0012    0.0010   -0.0091    0.0051    0.0000    0.0006   -0.0000   -0.0000    0.0000
    16 C2     1s         0.7037    0.7042   -0.1573   -0.1216    0.0000    0.0056    0.0000    0.0000   -0.0000
    17 C2     2s         0.0194    0.0198    0.3057    0.2321   -0.0000   -0.0216   -0.0000    0.0000   -0.0000
    18 C2     *s        -0.0052   -0.0106    0.2166    0.2830    0.0000    0.0318   -0.0000   -0.0000    0.0000
    19 C2     2px       -0.0002   -0.0008   -0.1256    0.1628    0.0137    0.4082    0.0130    0.0000   -0.0000
    20 C2     *px       -0.0005    0.0017   -0.0098    0.0437    0.0058    0.1449    0.0089    0.0000   -0.0000
    21 C2     2py        0.0000    0.0000    0.0053   -0.0068    0.3270   -0.0171    0.3096   -0.0000    0.0000
    22 C2     *py        0.0000   -0.0001    0.0004   -0.0018    0.1383   -0.0061    0.2133    0.0000   -0.0000
    23 C2     2pz       -0.0000    0.0000    0.0000    0.0000   -0.0000    0.0000   -0.0000    0.5231    0.0144
    24 C2     *pz        0.0000    0.0000    0.0000    0.0000    0.0000    0.0000   -0.0000    0.7142    0.2669
    25 C2     *200      -0.0008   -0.0004    0.0116   -0.0014    0.0004   -0.0098    0.0014    0.0000   -0.0000
    26 C2     *110      -0.0000   -0.0000   -0.0007    0.0013    0.0092    0.0022    0.0339    0.0000   -0.0000
    27 C2     *101       0.0000    0.0000   -0.0000    0.0000    0.0000   -0.0000   -0.0000   -0.0115    0.0352
    28 C2     *020      -0.0010   -0.0008    0.0032    0.0139   -0.0004    0.0161   -0.0014   -0.0000    0.0000
    29 C2     *011      -0.0000   -0.0000    0.0000   -0.0000   -0.0000    0.0000    0.0000    0.0005   -0.0015
    30 C2     *002      -0.0012   -0.0010   -0.0091   -0.0051   -0.0000    0.0006   -0.0000    0.0000   -0.0000
    31 H3     1s        -0.0001    0.0000    0.0785   -0.1437   -0.1536    0.1268    0.1865   -0.0000   -0.0000
    32 H3     *s         0.0014   -0.0014    0.0162   -0.0652   -0.0965    0.0997    0.1435   -0.0000   -0.0000
    33 H4     1s        -0.0001    0.0000    0.0785   -0.1437    0.1536    0.1269   -0.1865    0.0000    0.0000
    34 H4     *s         0.0014   -0.0014    0.0162   -0.0652    0.0965    0.0998   -0.1435    0.0000   -0.0000
    35 H5     1s        -0.0001   -0.0000    0.0785    0.1437   -0.1536    0.1269   -0.1865   -0.0000    0.0000
    36 H5     *s         0.0014    0.0014    0.0162    0.0652   -0.0965    0.0998   -0.1435    0.0000   -0.0000
    37 H6     1s        -0.0001   -0.0000    0.0785    0.1437    0.1536    0.1268    0.1865   -0.0000   -0.0000
    38 H6     *s         0.0014    0.0014    0.0162    0.0652    0.0965    0.0997    0.1435   -0.0000    0.0000
--
 
      Von Neumann Entropy (Root   1) =  0.22970
 

      Mulliken population analysis for root number:  1
      -----------------------------------------------
 
 
++    Molecular charges:
      ------------------
 
      Mulliken charges per centre and basis function type
      ---------------------------------------------------
 
                C1      C2      H3      H4      H5      H6    
      1s       1.9965  1.9965  0.5156  0.5156  0.5156  0.5156
      2s       0.6733  0.6733  0.0000  0.0000  0.0000  0.0000
      2px      0.7664  0.7664  0.0000  0.0000  0.0000  0.0000
      2pz      0.4794  0.4794  0.0000  0.0000  0.0000  0.0000
      2py      0.7318  0.7318  0.0000  0.0000  0.0000  0.0000
      *s       0.5991  0.5991  0.2825  0.2825  0.2825  0.2825
      *px      0.1907  0.1907  0.0000  0.0000  0.0000  0.0000
      *pz      0.5098  0.5098  0.0000  0.0000  0.0000  0.0000
      *py      0.3910  0.3910  0.0000  0.0000  0.0000  0.0000
      *200     0.0269  0.0269  0.0000  0.0000  0.0000  0.0000
      *110     0.0172  0.0172  0.0000  0.0000  0.0000  0.0000
      *101     0.0107  0.0107  0.0000  0.0000  0.0000  0.0000
      *020     0.0327  0.0327  0.0000  0.0000  0.0000  0.0000
      *011     0.0000  0.0000  0.0000  0.0000  0.0000  0.0000
      *002    -0.0218 -0.0218  0.0000  0.0000  0.0000  0.0000
      Total    6.4038  6.4038  0.7981  0.7981  0.7981  0.7981
 
      N-E     -0.4038 -0.4038  0.2019  0.2019  0.2019  0.2019
 
      Total electronic charge=   16.000000
 
      Total            charge=   -0.000000
--
 
 

      Expectation values of various properties for root number:  1
      -----------------------------------------------------------
 
 
++    Molecular properties:
      ---------------------
 
      Charge (e):
                      =   -0.0000
      Dipole Moment (debye):
      Origin of the operator (angstrom)=   -1.3178    0.7205    0.0000
                   X=  1.4674E-14               Y=  2.0318E-14               Z=  1.0304E-15           Total=  2.5084E-14
      Quadrupole Moment (debye*angstrom):
      Origin of the operator (angstrom)=   -1.3178    0.7205    0.0000
                  XX= -1.1252E+01              XY= -3.1082E-02              XZ= -1.2521E-15              YY= -1.1989E+01
                  YZ=  5.3035E-16              ZZ= -1.5605E+01
      In traceless form (debye*angstrom)
                  XX=  2.5455E+00              XY= -4.6623E-02              XZ= -1.8782E-15              YY=  1.4394E+00
                  YZ=  7.9553E-16              ZZ= -3.9848E+00
--
 
      Von Neumann Entropy (Root   2) =  1.00000
 

      Mulliken population analysis for root number:  2
      -----------------------------------------------
 
 
++    Molecular charges:
      ------------------
 
      Mulliken charges per centre and basis function type
      ---------------------------------------------------
 
                C1      C2      H3      H4      H5      H6    
      1s       1.9965  1.9965  0.5156  0.5156  0.5156  0.5156
      2s       0.6733  0.6733  0.0000  0.0000  0.0000  0.0000
      2px      0.7664  0.7664  0.0000  0.0000  0.0000  0.0000
      2pz      0.4533  0.4533  0.0000  0.0000  0.0000  0.0000
      2py      0.7318  0.7318  0.0000  0.0000  0.0000  0.0000
      *s       0.5991  0.5991  0.2825  0.2825  0.2825  0.2825
      *px      0.1907  0.1907  0.0000  0.0000  0.0000  0.0000
      *pz      0.5379  0.5379  0.0000  0.0000  0.0000  0.0000
      *py      0.3910  0.3910  0.0000  0.0000  0.0000  0.0000
      *200     0.0269  0.0269  0.0000  0.0000  0.0000  0.0000
      *110     0.0172  0.0172  0.0000  0.0000  0.0000  0.0000
      *101     0.0088  0.0088  0.0000  0.0000  0.0000  0.0000
      *020     0.0327  0.0327  0.0000  0.0000  0.0000  0.0000
      *011     0.0000  0.0000  0.0000  0.0000  0.0000  0.0000
      *002    -0.0218 -0.0218  0.0000  0.0000  0.0000  0.0000
      Total    6.4038  6.4038  0.7981  0.7981  0.7981  0.7981
 
      N-E     -0.4038 -0.4038  0.2019  0.2019  0.2019  0.2019
 
      Total electronic charge=   16.000000
 
      Total            charge=   -0.000000
--
 
 

      Expectation values of various properties for root number:  2
      -----------------------------------------------------------
 
 
++    Molecular properties:
      ---------------------
 
      Charge (e):
                      =   -0.0000
      Dipole Moment (debye):
      Origin of the operator (angstrom)=   -1.3178    0.7205    0.0000
                   X=  7.9803E-13               Y= -2.0318E-14               Z=  5.6552E-16           Total=  7.9829E-13
      Quadrupole Moment (debye*angstrom):
      Origin of the operator (angstrom)=   -1.3178    0.7205    0.0000
                  XX= -1.3552E+01              XY=  6.1443E-02              XZ= -7.4446E-16              YY= -1.2080E+01
                  YZ= -7.2332E-17              ZZ= -1.5867E+01
      In traceless form (debye*angstrom)
                  XX=  4.2202E-01              XY=  9.2164E-02              XZ= -1.1167E-15              YY=  2.6291E+00
                  YZ= -1.0850E-16              ZZ= -3.0511E+00
--
 
      Von Neumann Entropy (Root   3) =  0.22970
 

      Mulliken population analysis for root number:  3
      -----------------------------------------------
 
 
++    Molecular charges:
      ------------------
 
      Mulliken charges per centre and basis function type
      ---------------------------------------------------
 
                C1      C2      H3      H4      H5      H6    
      1s       1.9965  1.9965  0.5156  0.5156  0.5156  0.5156
      2s       0.6733  0.6733  0.0000  0.0000  0.0000  0.0000
      2px      0.7664  0.7664  0.0000  0.0000  0.0000  0.0000
      2pz      0.4272  0.4272  0.0000  0.0000  0.0000  0.0000
      2py      0.7318  0.7318  0.0000  0.0000  0.0000  0.0000
      *s       0.5991  0.5991  0.2825  0.2825  0.2825  0.2825
      *px      0.1907  0.1907  0.0000  0.0000  0.0000  0.0000
      *pz      0.5660  0.5660  0.0000  0.0000  0.0000  0.0000
      *py      0.3910  0.3910  0.0000  0.0000  0.0000  0.0000
      *200     0.0269  0.0269  0.0000  0.0000  0.0000  0.0000
      *110     0.0172  0.0172  0.0000  0.0000  0.0000  0.0000
      *101     0.0068  0.0068  0.0000  0.0000  0.0000  0.0000
      *020     0.0327  0.0327  0.0000  0.0000  0.0000  0.0000
      *011     0.0000  0.0000  0.0000  0.0000  0.0000  0.0000
      *002    -0.0218 -0.0218  0.0000  0.0000  0.0000  0.0000
      Total    6.4038  6.4038  0.7981  0.7981  0.7981  0.7981
 
      N-E     -0.4038 -0.4038  0.2019  0.2019  0.2019  0.2019
 
      Total electronic charge=   16.000000
 
      Total            charge=   -0.000000
--
 
 

      Expectation values of various properties for root number:  3
      -----------------------------------------------------------
 
 
++    Molecular properties:
      ---------------------
 
      Charge (e):
                      =   -0.0000
      Dipole Moment (debye):
      Origin of the operator (angstrom)=   -1.3178    0.7205    0.0000
                   X= -8.1835E-13               Y=  4.0353E-14               Z=  1.0064E-16           Total=  8.1935E-13
      Quadrupole Moment (debye*angstrom):
      Origin of the operator (angstrom)=   -1.3178    0.7205    0.0000
                  XX= -1.5852E+01              XY=  1.5397E-01              XZ= -2.3677E-16              YY= -1.2171E+01
                  YZ= -6.7502E-16              ZZ= -1.6129E+01
      In traceless form (debye*angstrom)
                  XX= -1.7014E+00              XY=  2.3095E-01              XZ= -3.5516E-16              YY=  3.8188E+00
                  YZ= -1.0125E-15              ZZ= -2.1174E+00
--
 
 
      Input file to MOLDEN was generated!
 
 
      Input file to MOLDEN was generated!
 
 
      Input file to MOLDEN was generated!
 
 
      Input file to MOLDEN was generated!
 
      Average orbitals are written to the RASORB file
      Natural orbitals for root   1 are written to the RASORB.1 file
      Natural orbitals for root   2 are written to the RASORB.2 file
      Natural orbitals for root   3 are written to the RASORB.3 file
      Spin density orbitals for root   1 are written to the SPDORB.1 file
      Spin density orbitals for root   2 are written to the SPDORB.2 file
      Spin density orbitals for root   3 are written to the SPDORB.3 file
 
--- Stop Module: rasscf at Wed Jul  8 10:22:34 2026 /rc=_RC_ALL_IS_WELL_ ---
*** files: 02_Ethylene_Geom_S0_CASSCF.rasscf.molden 02_Ethylene_Geom_S0_CASSCF.rasscf.molden.1 02_Ethylene_Geom_S0_CASSCF.rasscf.molden.2 02_Ethylene_Geom_S0_CASSCF.rasscf.molden.3
           02_Ethylene_Geom_S0_CASSCF.RasOrb 02_Ethylene_Geom_S0_CASSCF.RasOrb.1 02_Ethylene_Geom_S0_CASSCF.RasOrb.2 02_Ethylene_Geom_S0_CASSCF.RasOrb.3
           02_Ethylene_Geom_S0_CASSCF.rasscf.h5 02_Ethylene_Geom_S0_CASSCF.SpdOrb.1 02_Ethylene_Geom_S0_CASSCF.SpdOrb.2 02_Ethylene_Geom_S0_CASSCF.SpdOrb.3 xmldump
    saved to directory /vscratch/grp-cyberwksp21/sbakenhaster/wed_7_8/openmolcas_pyspawn/Tutorials_OpenMolcas/02_S0_Optimization_CASSCF
--- Module rasscf spent 2 seconds ---

*** symbolic link created: INPORB -> 02_Ethylene_Geom_S0_CASSCF.RasOrb
--- Start Module: slapaf at Wed Jul  8 10:22:34 2026 ---
 
()()()()()()()()()()()()()()()()()()()()()()()()()()()()()()()()()()()()()()()()()()()()()()()()()()

                                              &SLAPAF

                       only a single process is used, running in SERIAL mode
                       available to each process: 2.0 GB of memory, 1 thread?
                                            pid: 1811225
()()()()()()()()()()()()()()()()()()()()()()()()()()()()()()()()()()()()()()()()()()()()()()()()()()
 
--- Stop Module: slapaf at Wed Jul  8 10:22:34 2026 /rc=_RC_INVOKED_OTHER_MODULE_ ---
*** files: 02_Ethylene_Geom_S0_CASSCF.slapaf.h5 xmldump
    saved to directory /vscratch/grp-cyberwksp21/sbakenhaster/wed_7_8/openmolcas_pyspawn/Tutorials_OpenMolcas/02_S0_Optimization_CASSCF

*** symbolic link created: INPORB -> 02_Ethylene_Geom_S0_CASSCF.RasOrb
--- Start Module: alaska at Wed Jul  8 10:22:34 2026 ---
 
()()()()()()()()()()()()()()()()()()()()()()()()()()()()()()()()()()()()()()()()()()()()()()()()()()

                                              &ALASKA

                       only a single process is used, running in SERIAL mode
                       available to each process: 2.0 GB of memory, 1 thread?
                                            pid: 1811228
()()()()()()()()()()()()()()()()()()()()()()()()()()()()()()()()()()()()()()()()()()()()()()()()()()
 
--- Stop Module: alaska at Wed Jul  8 10:22:34 2026 /rc=_RC_INVOKED_OTHER_MODULE_ ---
*** files: xmldump
    saved to directory /vscratch/grp-cyberwksp21/sbakenhaster/wed_7_8/openmolcas_pyspawn/Tutorials_OpenMolcas/02_S0_Optimization_CASSCF

*** symbolic link created: INPORB -> 02_Ethylene_Geom_S0_CASSCF.RasOrb
--- Start Module: mclr at Wed Jul  8 10:22:34 2026 ---
 
()()()()()()()()()()()()()()()()()()()()()()()()()()()()()()()()()()()()()()()()()()()()()()()()()()

                                               &MCLR

                       only a single process is used, running in SERIAL mode
                       available to each process: 2.0 GB of memory, 1 thread?
                                            pid: 1811231
()()()()()()()()()()()()()()()()()()()()()()()()()()()()()()()()()()()()()()()()()()()()()()()()()()
 
 Ordinary integral handling
 No .RLXPT2  or MCKINT  , I hope that is OK
 Seward mode is assumed, reading perturbation from ONEINT
 OrdInt status: non-squared
 
++   Wave function specifications:
     -----------------------------
 
     Number of closed shell electrons             14
     Number of electrons in active shells          2
     Max number of holes in RAS1 space             0
     Max number of electrons in RAS3 space         0
     Number of inactive orbitals                   7
     Number of active orbitals                     2
     Number of secondary orbitals                 29
     Spin quantum number                         0.0
     State symmetry                                1
     Number of CI roots                            3
     States considered                             1     2     3
     Weights                                   0.333 0.333 0.333
 
     Symmetry species                              1
     Skipped sym. species                          0
     Frozen orbitals                               0
     Inactive orbitals                             7
     Active orbitals                               2
     RAS1 orbitals                                 0
     RAS2 orbitals                                 2
     RAS3 orbitals                                 0
     Deleted orbitals                              0
     Number of basis functions                    38
     Number of orbitals                           38
     Number of configurations                      3
     Number of combinations                        3
     Natural orbitals are used in the last CI
     RASSCF state energy =            -78.0483468600
     Size of explicit Hamiltonian in PCG:        100
--
 
     Convergence threshold=               1.0000E-04
     Max number of iterations in PCG:            200
     Lagrangian multipliers are calculated for state no.   1
 
 
        Iteration       Delta           Res(kappa)       Res(CI)          DeltaK
            DeltaC
            1      4.336005206E-02  4.961877834E-02  1.815292638E-17  7.975248415E-04  4.029582204E-48
            2      5.182492527E-03  1.921248026E-02  1.527015197E-17  9.532199191E-05 -5.209326023E-48
            3      1.144595882E-04  3.840933326E-03  1.760135577E-17  2.105264192E-06 -4.852656854E-48
            4      3.145911733E-07  1.618350042E-04  1.750677581E-17  5.786300149E-09  9.966213633E-49
      Perturbation no:    1 converged in    4 steps.
 
 
++    Molecular properties:
      ---------------------
 
      Charge (e):
                      =   -0.0000
      Dipole Moment (debye):
      Origin of the operator (angstrom)=   -1.3178    0.7205    0.0000
                   X=  2.8219E-14               Y= -1.4392E-14               Z=  1.6255E-15           Total=  3.1719E-14
      Quadrupole Moment (debye*angstrom):
      Origin of the operator (angstrom)=   -1.3178    0.7205    0.0000
                  XX= -1.2086E+01              XY= -7.4082E-03              XZ= -1.9266E-16              YY= -1.2259E+01
                  YZ= -6.3388E-17              ZZ= -1.5259E+01
      In traceless form (debye*angstrom)
                  XX=  1.6724E+00              XY= -1.1112E-02              XZ= -2.8900E-16              YY=  1.4139E+00
                  YZ= -9.5081E-17              ZZ= -3.0863E+00
--
 
 
      The response parameters are written to the file RESP.
 ###############################################################################
 ###############################################################################
 ###                                                                         ###
 ###                                                                         ###
 ###    WARNING: RunFile label nBas                                          ###
 ###    was used       58 times                                              ###
 ###                                                                         ###
 ###                                                                         ###
 ###############################################################################
 ###############################################################################
--- Stop Module: mclr at Wed Jul  8 10:22:35 2026 /rc=_RC_ALL_IS_WELL_ ---
*** files: xmldump
    saved to directory /vscratch/grp-cyberwksp21/sbakenhaster/wed_7_8/openmolcas_pyspawn/Tutorials_OpenMolcas/02_S0_Optimization_CASSCF

*** symbolic link created: INPORB -> 02_Ethylene_Geom_S0_CASSCF.RasOrb
--- Start Module: alaska at Wed Jul  8 10:22:35 2026 ---
 
()()()()()()()()()()()()()()()()()()()()()()()()()()()()()()()()()()()()()()()()()()()()()()()()()()

                                              &ALASKA

                       only a single process is used, running in SERIAL mode
                       available to each process: 2.0 GB of memory, 1 thread?
                                            pid: 1811234
()()()()()()()()()()()()()()()()()()()()()()()()()()()()()()()()()()()()()()()()()()()()()()()()()()
 
 
                     Threshold for contributions to the gradient: 1.000E-07
 
 
                    ********************************************
                    * Symmetry Adapted Cartesian Displacements *
                    ********************************************
 
 
           Irreducible representation : a  
           Basis function(s) of irrep: x, y, xy, Rz, z, xz, Ry, yz, Rx, I                                              
 
 Basis Label        Type   Center Phase
   1   C1           x         1     1
   2   C1           y         1     1
   3   C1           z         1     1
   4   C2           x         2     1
   5   C2           y         2     1
   6   C2           z         2     1
   7   H3           x         3     1
   8   H3           y         3     1
   9   H3           z         3     1
  10   H4           x         4     1
  11   H4           y         4     1
  12   H4           z         4     1
  13   H5           x         5     1
  14   H5           y         5     1
  15   H5           z         5     1
  16   H6           x         6     1
  17   H6           y         6     1
  18   H6           z         6     1
 
                     No automatic utilization of translational and rotational invariance of the energy is employed.
 
 Conventional ERI gradients!
 
 **************************************************
 *                                                *
 *              Molecular gradients               *
 *                                                *
 **************************************************
 
  Irreducible representation: a  
 ------------------------------------------------------------------------------------------
                              X                       Y                       Z
 ------------------------------------------------------------------------------------------
  C1                2.58362328765456E-02   -1.06456467567004E-03   -2.48848359975546E-16
  C2               -2.58362328765553E-02    1.06456467566166E-03    2.91309239376137E-16
  H3               -3.34273544013808E-03   -5.19027801387839E-03    1.44423366751758E-16
  H4               -2.90406901956319E-03    5.44713013323816E-03   -1.38190340597651E-16
  H5                2.90406901956497E-03   -5.44713013323062E-03   -2.66211031764188E-16
  H6                3.34273544014163E-03    5.19027801388172E-03    2.17517126209485E-16
 ------------------------------------------------------------------------------------------
 
--- Stop Module: alaska at Wed Jul  8 10:22:35 2026 /rc=_RC_ALL_IS_WELL_ ---
*** files: xmldump
    saved to directory /vscratch/grp-cyberwksp21/sbakenhaster/wed_7_8/openmolcas_pyspawn/Tutorials_OpenMolcas/02_S0_Optimization_CASSCF

>>> EXPORT MOLCAS_TRAP = YES

*** symbolic link created: INPORB -> 02_Ethylene_Geom_S0_CASSCF.RasOrb
--- Start Module: slapaf at Wed Jul  8 10:22:35 2026 ---
 
()()()()()()()()()()()()()()()()()()()()()()()()()()()()()()()()()()()()()()()()()()()()()()()()()()

                                              &SLAPAF

                       only a single process is used, running in SERIAL mode
                       available to each process: 2.0 GB of memory, 1 thread?
                                            pid: 1811237
()()()()()()()()()()()()()()()()()()()()()()()()()()()()()()()()()()()()()()()()()()()()()()()()()()
 
 
 
++       Slapaf input parameters:
         ------------------------
 
 Maximum number of iterations:               900
 Convergence test a la Schlegel.
 Convergence criterion on gradient/para.<=: 3.0E-04
 Convergence criterion on step/parameter<=: 3.0E-04
 Convergence criterion on energy change <=: 0.0E+00
 Parameters for step-restricted optimization
 Maximum step length (initial seed):       3.00E-01
 
 -RFO activated with parameters:
   Maximum number of data points used in RFO:      5
 Line search is performed
 
 
 -Optimization for minimum.
  Optimization method: RS-RFO.
 
 -Initial Hessian guessed by Hessian Model Function (HMF).
  HMF augmented with weak interactions.
 
 -Hessian update method: Broyden-Fletcher-Goldfarb-Shanno
  Maximum number of points in Hessian update:  5
 
 -Relaxation will be done on non-redundant internal coordinates, based on
  force constant weighted redundant internal coordinates.
 
--
 
 ******************************************
 * Statistics of the internal coordinates *
 ******************************************
 Translations and Rotations:         0
 Bonds                     :         5
 Angles                    :         6
 Torsions                  :         4
 Out-of-plane angles       :         4
 
 
**********************************************************************************************************************
*                                    Energy Statistics for Geometry Optimization                                     *
**********************************************************************************************************************
                       Energy     Grad      Grad              Step                 Estimated   Geom       Hessian     
Iter      Energy       Change     Norm      Max    Element    Max     Element     Final Energy Update Update   Index  
  1    -78.04834686  0.00000000 0.038597 -0.021929 nrc001  -0.031330  nrc001      -78.04874022 RS-RFO  None      0    
 
       +----------------------------------+----------------------------------+
       +    Cartesian Displacements       +    Gradient in internals         +
       +  Value      Threshold Converged? +  Value      Threshold Converged? +
 +-----+----------------------------------+----------------------------------+
 + RMS + 1.1937E-02  1.2000E-03     No    + 1.7261E-02  3.0000E-04     No    +
 +-----+----------------------------------+----------------------------------+
 + Max + 1.1982E-02  1.8000E-03     No    + 2.1929E-02  4.5000E-04     No    +
 +-----+----------------------------------+----------------------------------+
 
 Convergence not reached yet!
 
*****************************************************************************************************************
*****************************************************************************************************************
 
++ Geometry section
 
********************************************************************************
  Geometrical information of the new structure
********************************************************************************
 
 
 *********************************************************
 * Nuclear coordinates for the next iteration / bohr     *
 *********************************************************
  ATOM              X               Y               Z     
  C1              -3.752966        1.414270        0.000000
  C2              -1.227489        1.308712        0.000000
  H3              -4.894696       -0.270099        0.000000
  H4              -4.750196        3.188013        0.000000
  H5              -0.230258       -0.465031        0.000000
  H6              -0.085759        2.993081        0.000000
 
 
 *********************************************************
 * Nuclear coordinates for the next iteration / angstrom *
 *********************************************************
  ATOM              X               Y               Z     
  C1              -1.985984        0.748399        0.000000
  C2              -0.649559        0.692541        0.000000
  H3              -2.590161       -0.142930        0.000000
  H4              -2.513696        1.687024        0.000000
  H5              -0.121847       -0.246084        0.000000
  H6              -0.045382        1.583870        0.000000
 
 
                    *************************************** 
                    *    InterNuclear Distances / bohr    * 
                    *************************************** 
 
               1 C1            2 C2            3 H3            4 H4            5 H5    
    1 C1       0.000000
    2 C2       2.527682        0.000000
    3 H3       2.034858        3.992625        0.000000
    4 H4       2.034855        3.992648        3.461130        0.000000
    5 H5       3.992648        2.034855        4.668509        5.811590        0.000000
    6 H6       3.992625        2.034858        5.811560        4.668509        3.461130
 
               6 H6    
    6 H6       0.000000
 
                    ******************************************* 
                    *    InterNuclear Distances / angstrom    * 
                    ******************************************* 
 
               1 C1            2 C2            3 H3            4 H4            5 H5    
    1 C1       0.000000
    2 C2       1.337592        0.000000
    3 H3       1.076800        2.112806        0.000000
    4 H4       1.076799        2.112819        1.831551        0.000000
    5 H5       2.112819        1.076799        2.470469        3.075361        0.000000
    6 H6       2.112806        1.076800        3.075345        2.470469        1.831551
 
               6 H6    
    6 H6       0.000000
 
                    ************************************** 
                    *    Valence Bond Angles / degree    * 
                    ************************************** 
                          Atom centers                 Phi
                      2 C2       1 C1       3 H3       121.74
                      2 C2       1 C1       4 H4       121.74
                      3 H3       1 C1       4 H4       116.52
                      1 C1       2 C2       5 H5       121.74
                      1 C1       2 C2       6 H6       121.74
                      5 H5       2 C2       6 H6       116.52
 
           ***************************************************************
           *              Valence Dihedral Angles / degree               *
           ***************************************************************
                    Atom centers                       Phi1     Phi2     Theta 
           3 H3       1 C1       2 C2       5 H5        121.74   121.74     0.00
           3 H3       1 C1       2 C2       6 H6        121.74   121.74  -180.00
           4 H4       1 C1       2 C2       5 H5        121.74   121.74  -180.00
           4 H4       1 C1       2 C2       6 H6        121.74   121.74     0.00
--
--- Stop Module: slapaf at Wed Jul  8 10:22:36 2026 /rc=_RC_CONTINUE_LOOP_ ---
*** files: 02_Ethylene_Geom_S0_CASSCF.geo.molden 02_Ethylene_Geom_S0_CASSCF.slapaf.h5 02_Ethylene_Geom_S0_CASSCF.structure 02_Ethylene_Geom_S0_CASSCF.Opt.xyz xmldump
    saved to directory /vscratch/grp-cyberwksp21/sbakenhaster/wed_7_8/openmolcas_pyspawn/Tutorials_OpenMolcas/02_S0_Optimization_CASSCF

>>> END DO

*** symbolic link created: INPORB -> 02_Ethylene_Geom_S0_CASSCF.RasOrb
--- Start Module: seward at Wed Jul  8 10:22:36 2026 ---
--- Stop Module: seward at Wed Jul  8 10:22:37 2026 /rc=_RC_ALL_IS_WELL_ ---
*** files: xmldump
    saved to directory /vscratch/grp-cyberwksp21/sbakenhaster/wed_7_8/openmolcas_pyspawn/Tutorials_OpenMolcas/02_S0_Optimization_CASSCF

>>> IF (ITER == 1)
(Skipped)

*** symbolic link created: INPORB -> 02_Ethylene_Geom_S0_CASSCF.RasOrb
--- Start Module: rasscf at Wed Jul  8 10:22:37 2026 ---
--- Stop Module: rasscf at Wed Jul  8 10:22:39 2026 /rc=_RC_ALL_IS_WELL_ ---
*** files: 02_Ethylene_Geom_S0_CASSCF.rasscf.molden 02_Ethylene_Geom_S0_CASSCF.rasscf.molden.1 02_Ethylene_Geom_S0_CASSCF.rasscf.molden.2 02_Ethylene_Geom_S0_CASSCF.rasscf.molden.3
           02_Ethylene_Geom_S0_CASSCF.RasOrb 02_Ethylene_Geom_S0_CASSCF.RasOrb.1 02_Ethylene_Geom_S0_CASSCF.RasOrb.2 02_Ethylene_Geom_S0_CASSCF.RasOrb.3
           02_Ethylene_Geom_S0_CASSCF.rasscf.h5 02_Ethylene_Geom_S0_CASSCF.SpdOrb.1 02_Ethylene_Geom_S0_CASSCF.SpdOrb.2 02_Ethylene_Geom_S0_CASSCF.SpdOrb.3 xmldump
    saved to directory /vscratch/grp-cyberwksp21/sbakenhaster/wed_7_8/openmolcas_pyspawn/Tutorials_OpenMolcas/02_S0_Optimization_CASSCF
--- Module rasscf spent 1 second ---

*** symbolic link created: INPORB -> 02_Ethylene_Geom_S0_CASSCF.RasOrb
--- Start Module: slapaf at Wed Jul  8 10:22:39 2026 ---
--- Stop Module: slapaf at Wed Jul  8 10:22:39 2026 /rc=_RC_INVOKED_OTHER_MODULE_ ---
*** files: 02_Ethylene_Geom_S0_CASSCF.slapaf.h5 xmldump
    saved to directory /vscratch/grp-cyberwksp21/sbakenhaster/wed_7_8/openmolcas_pyspawn/Tutorials_OpenMolcas/02_S0_Optimization_CASSCF

*** symbolic link created: INPORB -> 02_Ethylene_Geom_S0_CASSCF.RasOrb
--- Start Module: alaska at Wed Jul  8 10:22:39 2026 ---
--- Stop Module: alaska at Wed Jul  8 10:22:39 2026 /rc=_RC_INVOKED_OTHER_MODULE_ ---
*** files: xmldump
    saved to directory /vscratch/grp-cyberwksp21/sbakenhaster/wed_7_8/openmolcas_pyspawn/Tutorials_OpenMolcas/02_S0_Optimization_CASSCF

*** symbolic link created: INPORB -> 02_Ethylene_Geom_S0_CASSCF.RasOrb
--- Start Module: mclr at Wed Jul  8 10:22:39 2026 ---
 
--- Stop Module: mclr at Wed Jul  8 10:22:40 2026 /rc=_RC_ALL_IS_WELL_ ---
*** files: xmldump
    saved to directory /vscratch/grp-cyberwksp21/sbakenhaster/wed_7_8/openmolcas_pyspawn/Tutorials_OpenMolcas/02_S0_Optimization_CASSCF

*** symbolic link created: INPORB -> 02_Ethylene_Geom_S0_CASSCF.RasOrb
--- Start Module: alaska at Wed Jul  8 10:22:40 2026 ---
--- Stop Module: alaska at Wed Jul  8 10:22:40 2026 /rc=_RC_ALL_IS_WELL_ ---
*** files: xmldump
    saved to directory /vscratch/grp-cyberwksp21/sbakenhaster/wed_7_8/openmolcas_pyspawn/Tutorials_OpenMolcas/02_S0_Optimization_CASSCF

>>> EXPORT MOLCAS_TRAP = YES

*** symbolic link created: INPORB -> 02_Ethylene_Geom_S0_CASSCF.RasOrb
--- Start Module: slapaf at Wed Jul  8 10:22:40 2026 ---
 
**********************************************************************************************************************
*                                    Energy Statistics for Geometry Optimization                                     *
**********************************************************************************************************************
                       Energy     Grad      Grad              Step                 Estimated   Geom       Hessian     
Iter      Energy       Change     Norm      Max    Element    Max     Element     Final Energy Update Update   Index  
  1    -78.04834686  0.00000000 0.038597 -0.021929 nrc001  -0.031330  nrc001      -78.04874022 RS-RFO  None      0    
  2    -78.04881502 -0.00046816 0.008273 -0.004479 nrc001  -0.009933  nrc001      -78.04883676 RS-RFO  BFGS      0    
 
       +----------------------------------+----------------------------------+
       +    Cartesian Displacements       +    Gradient in internals         +
       +  Value      Threshold Converged? +  Value      Threshold Converged? +
 +-----+----------------------------------+----------------------------------+
 + RMS + 2.4007E-03  1.2000E-03     No    + 3.7000E-03  3.0000E-04     No    +
 +-----+----------------------------------+----------------------------------+
 + Max + 3.0945E-03  1.8000E-03     No    + 4.4793E-03  4.5000E-04     No    +
 +-----+----------------------------------+----------------------------------+
 
 Convergence not reached yet!
 
*****************************************************************************************************************
*****************************************************************************************************************
 
++ Geometry section
 
********************************************************************************
  Geometrical information of the new structure
********************************************************************************
 
 
 *********************************************************
 * Nuclear coordinates for the next iteration / bohr     *
 *********************************************************
  ATOM              X               Y               Z     
  C1              -3.756058        1.414390        0.000000
  C2              -1.224396        1.308592        0.000000
  H3              -4.892841       -0.269476        0.000000
  H4              -4.748387        3.187231        0.000000
  H5              -0.232068       -0.464250        0.000000
  H6              -0.087613        2.992459        0.000000
 
 
 *********************************************************
 * Nuclear coordinates for the next iteration / angstrom *
 *********************************************************
  ATOM              X               Y               Z     
  C1              -1.987620        0.748463        0.000000
  C2              -0.647923        0.692477        0.000000
  H3              -2.589180       -0.142600        0.000000
  H4              -2.512738        1.686610        0.000000
  H5              -0.122805       -0.245670        0.000000
  H6              -0.046363        1.583541        0.000000
 
--
--- Stop Module: slapaf at Wed Jul  8 10:22:40 2026 /rc=_RC_CONTINUE_LOOP_ ---
*** files: 02_Ethylene_Geom_S0_CASSCF.geo.molden 02_Ethylene_Geom_S0_CASSCF.slapaf.h5 02_Ethylene_Geom_S0_CASSCF.structure 02_Ethylene_Geom_S0_CASSCF.Opt.xyz xmldump
    saved to directory /vscratch/grp-cyberwksp21/sbakenhaster/wed_7_8/openmolcas_pyspawn/Tutorials_OpenMolcas/02_S0_Optimization_CASSCF

>>> END DO

*** symbolic link created: INPORB -> 02_Ethylene_Geom_S0_CASSCF.RasOrb
--- Start Module: seward at Wed Jul  8 10:22:40 2026 ---
--- Stop Module: seward at Wed Jul  8 10:22:41 2026 /rc=_RC_ALL_IS_WELL_ ---
*** files: xmldump
    saved to directory /vscratch/grp-cyberwksp21/sbakenhaster/wed_7_8/openmolcas_pyspawn/Tutorials_OpenMolcas/02_S0_Optimization_CASSCF

>>> IF (ITER == 1)
(Skipped)

*** symbolic link created: INPORB -> 02_Ethylene_Geom_S0_CASSCF.RasOrb
--- Start Module: rasscf at Wed Jul  8 10:22:41 2026 ---
--- Stop Module: rasscf at Wed Jul  8 10:22:43 2026 /rc=_RC_ALL_IS_WELL_ ---
*** files: 02_Ethylene_Geom_S0_CASSCF.rasscf.molden 02_Ethylene_Geom_S0_CASSCF.rasscf.molden.1 02_Ethylene_Geom_S0_CASSCF.rasscf.molden.2 02_Ethylene_Geom_S0_CASSCF.rasscf.molden.3
           02_Ethylene_Geom_S0_CASSCF.RasOrb 02_Ethylene_Geom_S0_CASSCF.RasOrb.1 02_Ethylene_Geom_S0_CASSCF.RasOrb.2 02_Ethylene_Geom_S0_CASSCF.RasOrb.3
           02_Ethylene_Geom_S0_CASSCF.rasscf.h5 02_Ethylene_Geom_S0_CASSCF.SpdOrb.1 02_Ethylene_Geom_S0_CASSCF.SpdOrb.2 02_Ethylene_Geom_S0_CASSCF.SpdOrb.3 xmldump
    saved to directory /vscratch/grp-cyberwksp21/sbakenhaster/wed_7_8/openmolcas_pyspawn/Tutorials_OpenMolcas/02_S0_Optimization_CASSCF
--- Module rasscf spent 1 second ---

*** symbolic link created: INPORB -> 02_Ethylene_Geom_S0_CASSCF.RasOrb
--- Start Module: slapaf at Wed Jul  8 10:22:43 2026 ---
--- Stop Module: slapaf at Wed Jul  8 10:22:43 2026 /rc=_RC_INVOKED_OTHER_MODULE_ ---
*** files: 02_Ethylene_Geom_S0_CASSCF.slapaf.h5 xmldump
    saved to directory /vscratch/grp-cyberwksp21/sbakenhaster/wed_7_8/openmolcas_pyspawn/Tutorials_OpenMolcas/02_S0_Optimization_CASSCF

[...]
 -----------------------------------------------------
 Molecular Partition Function and Molar Entropy:
                        q/V (M**-3)    S(kcal/mol*K)
 Electronic            1.000000E+00        0.000
 Translational         5.123555E+27       36.327
 Rotational            2.938121E+03       18.850
 Vibrational           9.989170E-25        0.455
 TOTAL                 1.503732E+07       55.632
 
 Thermal contributions to INTERNAL ENERGY:
 Electronic           0.000 kcal/mol      0.000000 au.
 Translational        0.963 kcal/mol      0.001535 au.
 Rotational           0.963 kcal/mol      0.001535 au.
 Vibrational         35.635 kcal/mol      0.056788 au.
 TOTAL               37.562 kcal/mol      0.059858 au.
 
 Thermal contributions to
 ENTHALPY            38.204 kcal/mol      0.060882 au.
 GIBBS FREE ENERGY   20.226 kcal/mol      0.032233 au.
 
 Sum of energy and thermal contributions
 INTERNAL ENERGY                        -77.988973 au.
 ENTHALPY                               -77.987950 au.
 GIBBS FREE ENERGY                      -78.016598 au.
 -----------------------------------------------------
 
 *****************************************************
 Temperature =   373.15 kelvin, Pressure =   1.00 atm
 -----------------------------------------------------
 Molecular Partition Function and Molar Entropy:
                        q/V (M**-3)    S(kcal/mol*K)
 Electronic            1.000000E+00        0.000
 Translational         6.357558E+27       37.042
 Rotational            3.645765E+03       19.279
 Vibrational           1.711307E-21        0.779
 TOTAL                 3.966495E+10       57.099
 
 Thermal contributions to INTERNAL ENERGY:
 Electronic           0.000 kcal/mol      0.000000 au.
 Translational        1.112 kcal/mol      0.001773 au.
 Rotational           1.112 kcal/mol      0.001773 au.
 Vibrational         35.748 kcal/mol      0.056969 au.
 TOTAL               37.973 kcal/mol      0.060514 au.
 
 Thermal contributions to
 ENTHALPY            38.714 kcal/mol      0.061695 au.
 GIBBS FREE ENERGY   17.408 kcal/mol      0.027741 au.
 
 Sum of energy and thermal contributions
 INTERNAL ENERGY                        -77.988318 au.
 ENTHALPY                               -77.987136 au.
 GIBBS FREE ENERGY                      -78.021090 au.
 -----------------------------------------------------
 
 *****************************************************
 Temperature =   473.15 kelvin, Pressure =   1.00 atm
 -----------------------------------------------------
 Molecular Partition Function and Molar Entropy:
                        q/V (M**-3)    S(kcal/mol*K)
 Electronic            1.000000E+00        0.000
 Translational         9.077441E+27       38.221
 Rotational            5.205492E+03       19.986
 Vibrational           4.757993E-17        1.648
 TOTAL                 2.248273E+15       59.856
 
 Thermal contributions to INTERNAL ENERGY:
 Electronic           0.000 kcal/mol      0.000000 au.
 Translational        1.410 kcal/mol      0.002248 au.
 Rotational           1.410 kcal/mol      0.002248 au.
 Vibrational         36.118 kcal/mol      0.057558 au.
 TOTAL               38.939 kcal/mol      0.062053 au.
 
 Thermal contributions to
 ENTHALPY            39.879 kcal/mol      0.063551 au.
 GIBBS FREE ENERGY   11.558 kcal/mol      0.018420 au.
 
 Sum of energy and thermal contributions
 INTERNAL ENERGY                        -77.986778 au.
 ENTHALPY                               -77.985280 au.
 GIBBS FREE ENERGY                      -78.030412 au.
 -----------------------------------------------------
--
 
++    Isotopic shifts:
      ----------------
 
 
 
 ****************************************
 *                                      *
 * Isotope shifted frequencies in cm-1  *
 *                                      *
 ****************************************
 
 
  Single substitutions:
  -----------------------
 
 Masses:
 =======
  13  12   1   1   1   1
 
 
 Frequencies:
 ============
                         1         2         3         4         5         6
 
            Freq.      i0.00     i0.00     i0.00     i0.00      0.00      0.00                                               
 
 
                         7         8         9        10        11        12
 
            Freq.     886.51   1040.96   1135.92   1333.45   1435.83   1601.13                                               
 
 
                        13        14        15        16        17        18
 
            Freq.    1763.82   2095.45   3319.95   3339.87   3392.63   3421.81                                               
 
 
 Masses:
 =======
  14  12   1   1   1   1
 
 
 Frequencies:
 ============
                         1         2         3         4         5         6
 
            Freq.      i0.00     i0.00     i0.00      0.00      0.00      0.00                                               
 
 
                         7         8         9        10        11        12
 
            Freq.     885.93   1034.08   1133.70   1325.15   1424.88   1597.90                                               
 
 
                        13        14        15        16        17        18
 
            Freq.    1748.45   2095.45   3316.51   3337.69   3382.98   3419.44                                               
 
 
 Masses:
 =======
  12  13   1   1   1   1
 
 
 Frequencies:
 ============
                         1         2         3         4         5         6
 
            Freq.      i0.00     i0.00     i0.00      0.00      0.00      0.00                                               
 
 
                         7         8         9        10        11        12
 
            Freq.     886.51   1040.82   1136.07   1333.45   1435.82   1601.13                                               
 
 
                        13        14        15        16        17        18
 
            Freq.    1763.83   2095.45   3319.80   3340.02   3392.66   3421.79                                               
 
 
 Masses:
 =======
  12  14   1   1   1   1
 
 
 Frequencies:
 ============
                         1         2         3         4         5         6
 
            Freq.      i0.00     i0.00     i0.00     i0.00      0.00      0.00                                               
 
 
                         7         8         9        10        11        12
 
            Freq.     885.93   1033.84   1133.96   1325.15   1424.85   1597.91                                               
 
 
                        13        14        15        16        17        18
 
            Freq.    1748.48   2095.45   3316.25   3337.95   3383.01   3419.41                                               
 
 
 Masses:
 =======
  12  12   2   1   1   1
 
 
 Frequencies:
 ============
                         1         2         3         4         5         6
 
            Freq.      i0.00     i0.00     i0.00     i0.00      0.00      0.00                                               
 
 
                         7         8         9        10        11        12
 
            Freq.     787.05    957.68   1099.79   1228.17   1402.59   1541.37                                               
 
 
                        13        14        15        16        17        18
 
            Freq.    1748.64   1971.39   2487.34   3332.10   3375.25   3416.62                                               
 
 
 Masses:
 =======
  12  12   3   1   1   1
 
 
 Frequencies:
 ============
                         1         2         3         4         5         6
 
            Freq.      i0.00     i0.00     i0.00     i0.00      0.00      0.00                                               
 
 
                         7         8         9        10        11        12
 
            Freq.     714.23    903.69   1095.10   1175.98   1396.21   1519.60                                               
 
 
                        13        14        15        16        17        18
 
            Freq.    1725.94   1933.78   2136.05   3332.03   3374.83   3416.53                                               
 
 
 Masses:
 =======
  12  12   1   2   1   1
 
 
 Frequencies:
 ============
                         1         2         3         4         5         6
 
            Freq.      i0.00     i0.00     i0.00      0.00      0.00      0.00                                               
 
 
                         7         8         9        10        11        12
 
            Freq.     787.04    957.81   1099.89   1228.10   1402.65   1541.41                                               
 
 
                        13        14        15        16        17        18
 
            Freq.    1748.61   1970.95   2487.47   3332.13   3375.03   3416.64                                               
 
 
 Masses:
 =======
  12  12   1   3   1   1
 
 
 Frequencies:
 ============
                         1         2         3         4         5         6
 
            Freq.      i0.00     i0.00     i0.00      0.00      0.00      0.00                                               
 
 
                         7         8         9        10        11        12
 
            Freq.     714.22    903.89   1095.20   1175.91   1396.29   1519.62                                               
 
 
                        13        14        15        16        17        18
 
            Freq.    1725.92   1933.20   2136.16   3332.06   3374.61   3416.54                                               
 
 
 Masses:
 =======
  12  12   1   1   2   1
 
 
 Frequencies:
 ============
                         1         2         3         4         5         6
 
            Freq.      i0.00     i0.00     i0.00      0.00      0.00      0.00                                               
 
 
                         7         8         9        10        11        12
 
            Freq.     787.03    956.73   1101.15   1228.21   1402.68   1541.15                                               
 
 
                        13        14        15        16        17        18
 
            Freq.    1748.74   1970.92   2487.36   3332.57   3374.81   3416.59                                               
 
 
 Masses:
 =======
  12  12   1   1   3   1
 
 
 Frequencies:
 ============
                         1         2         3         4         5         6
 
            Freq.      i0.00     i0.00     i0.00      0.00      0.00      0.00                                               
 
 
                         7         8         9        10        11        12
 
            Freq.     714.21    902.80   1096.55   1176.03   1396.29   1519.31                                               
 
 
                        13        14        15        16        17        18
 
            Freq.    1726.11   1933.14   2136.08   3332.51   3374.38   3416.49                                               
 
 
 Masses:
 =======
  12  12   1   1   1   2
 
 
 Frequencies:
 ============
                         1         2         3         4         5         6
 
            Freq.      i0.00     i0.00     i0.00     i0.00      0.00      0.00                                               
 
 
                         7         8         9        10        11        12
 
            Freq.     787.07    956.61   1101.05   1228.14   1402.70   1541.21                                               
 
 
                        13        14        15        16        17        18
 
            Freq.    1748.72   1971.35   2487.08   3332.56   3375.15   3416.56                                               
 
 
 Masses:
 =======
  12  12   1   1   1   3
 
 
 Frequencies:
 ============
                         1         2         3         4         5         6
 
            Freq.      i0.00     i0.00      0.00      0.00      0.00      0.00                                               
 
 
                         7         8         9        10        11        12
 
            Freq.     714.25    902.61   1096.46   1175.96   1396.33   1519.38                                               
 
 
                        13        14        15        16        17        18
 
            Freq.    1726.06   1933.72   2135.80   3332.49   3374.73   3416.47                                               
 
 
 
  Full substitutions:
  -----------------------
 
 Masses:
 =======
  12  12   2   2   2   2
 
 
 Frequencies:
 ============
                         1         2         3         4         5         6
 
            Freq.      i0.00     i0.00     i0.00      0.00      0.00      0.00                                               
 
 
                         7         8         9        10        11        12
 
            Freq.     637.60    861.48    865.68   1077.13   1091.07   1188.62                                               
 
 
                        13        14        15        16        17        18
 
            Freq.    1482.28   1623.16   2400.37   2468.54   2538.27   2551.64                                               
 
 
 Masses:
 =======
  12  12   3   3   3   3
 
 
 Frequencies:
 ============
                         1         2         3         4         5         6
 
            Freq.      i0.00     i0.00      0.00      0.00      0.00      0.00                                               
 
 
                         7         8         9        10        11        12
 
            Freq.     527.58    746.76    795.49    886.46    970.82   1008.76                                               
 
 
                        13        14        15        16        17        18
 
            Freq.    1211.30   1509.08   2003.35   2154.46   2184.25   2186.53                                               
 
 
 Masses:
 =======
  13  13   1   1   1   1
 
 
 Frequencies:
 ============
                         1         2         3         4         5         6
 
            Freq.      i0.00     i0.00     i0.00      0.00      0.00      0.00                                               
 
 
                         7         8         9        10        11        12
 
            Freq.     885.90   1033.73   1132.59   1323.86   1423.93   1598.14                                               
 
 
                        13        14        15        16        17        18
 
            Freq.    1744.60   2095.45   3317.74   3335.37   3387.52   3412.83                                               
 
 
 Masses:
 =======
  14  14   1   1   1   1
 
 
 Frequencies:
 ============
                         1         2         3         4         5         6
 
            Freq.      i0.00     i0.00      0.00      0.00      0.00      0.00                                               
 
 
                         7         8         9        10        11        12
 
            Freq.     884.82   1020.95   1127.15   1307.04   1398.81   1592.63                                               
 
 
                        13        14        15        16        17        18
 
            Freq.    1714.78   2095.45   3313.22   3328.71   3375.71   3400.59                                               
 
 
--
 
++ Principal components of the normal modes
   ----------------------------------------
 
   (Only contributions larger than 0.50 times the maximum are printed)
 
 
      Mode      1
        Frequency:          887.15 cm-1
      ---------------------------------
        Angle C1 C2 H5           1.0000
        Angle C2 C1 H3           0.9998
        Angle C2 C1 H4          -0.9997
        Angle C1 C2 H6          -0.9996
      ---------------------------------
 
      Mode      2
        Frequency:         1048.50 cm-1
      ---------------------------------
        Dihedral H4 C1 C2 H6     1.0000
        Dihedral H3 C1 C2 H5    -1.0000
        Outofp   H6 C1 H5 C2    -0.6859
        Outofp   H5 C1 H6 C2     0.6859
        Outofp   H3 C2 H4 C1     0.6767
        Outofp   H4 C2 H3 C1    -0.6767
      ---------------------------------
 
      Mode      3
        Frequency:         1138.92 cm-1
      ---------------------------------
        Dihedral H3 C1 C2 H6     1.0000
        Dihedral H4 C1 C2 H5    -0.9985
        Outofp   H3 C2 H4 C1    -0.6870
        Outofp   H4 C2 H3 C1     0.6870
        Outofp   H6 C1 H5 C2    -0.6747
        Outofp   H5 C1 H6 C2     0.6747
      ---------------------------------
 
      Mode      4
        Frequency:         1342.96 cm-1
      ---------------------------------
        Angle C2 C1 H4          -1.0000
        Angle C1 C2 H6           0.9999
        Angle C1 C2 H5          -0.9994
        Angle C2 C1 H3           0.9993
      ---------------------------------
 
      Mode      5
        Frequency:         1446.60 cm-1
      ---------------------------------
        Angle H3 C1 H4          -1.0000
        Angle H5 C2 H6          -0.9976
        Bond C2 C1               0.9150
        Angle C2 C1 H3           0.6099
        Angle C2 C1 H4           0.6095
        Angle C1 C2 H6           0.6084
        Angle C1 C2 H5           0.6081
      ---------------------------------
 
      Mode      6
        Frequency:         1604.51 cm-1
      ---------------------------------
        Angle H5 C2 H6          -1.0000
        Angle H3 C1 H4           0.9985
        Angle C1 C2 H5           0.6099
        Angle C1 C2 H6           0.6095
        Angle C2 C1 H3          -0.6091
        Angle C2 C1 H4          -0.6086
      ---------------------------------
 
      Mode      7
        Frequency:         1783.27 cm-1
      ---------------------------------
        Angle H3 C1 H4           1.0000
        Angle H5 C2 H6           0.9989
        Bond C2 C1               0.7827
        Angle C2 C1 H4          -0.6099
        Angle C2 C1 H3          -0.6096
        Angle C1 C2 H6          -0.6091
        Angle C1 C2 H5          -0.6090
      ---------------------------------
 
      Mode      8
        Frequency:         2095.45 cm-1
      ---------------------------------
        Dihedral H4 C1 C2 H5    -1.0000
        Dihedral H4 C1 C2 H6    -0.9989
        Dihedral H3 C1 C2 H5    -0.9989
        Dihedral H3 C1 C2 H6    -0.9979
      ---------------------------------
 
      Mode      9
        Frequency:         3323.06 cm-1
      ---------------------------------
        Bond H6 C2               1.0000
        Bond H5 C2               0.9972
        Bond H3 C1              -0.9760
        Bond H4 C1              -0.9758
      ---------------------------------
 
      Mode     10
        Frequency:         3343.50 cm-1
      ---------------------------------
        Bond H3 C1               1.0000
        Bond H4 C1               0.9947
        Bond H6 C2               0.9778
        Bond H5 C2               0.9716
      ---------------------------------
 
      Mode     11
        Frequency:         3401.44 cm-1
      ---------------------------------
        Bond H4 C1              -1.0000
        Bond H5 C2              -0.9992
        Bond H3 C1               0.9958
        Bond H6 C2               0.9926
      ---------------------------------
 
      Mode     12
        Frequency:         3427.10 cm-1
      ---------------------------------
        Bond H5 C2              -1.0000
        Bond H6 C2               0.9981
        Bond H4 C1               0.9976
        Bond H3 C1              -0.9966
      ---------------------------------
--
 
--- Stop Module: slapaf at Wed Jul  8 10:24:34 2026 /rc=_RC_ALL_IS_WELL_ ---
*** files: 02_Ethylene_Geom_S0_CASSCF.freq.molden 02_Ethylene_Geom_S0_CASSCF.slapaf.h5 xmldump
    saved to directory /vscratch/grp-cyberwksp21/sbakenhaster/wed_7_8/openmolcas_pyspawn/Tutorials_OpenMolcas/02_S0_Optimization_CASSCF

>>> END DO

>>> EXPORT MOLCAS_TRAP = YES

>>> EXPORT MOLCAS_MAXITER = 900

.##################.
.# Happy landing! #.
.##################.

    Timing: Wall=119.37 User=49.53 System=13.16
