[Molden Format]
[N_Atoms]
                     6
[Atoms] (AU)
C1          1      6          -3.75616265      1.41438972     -0.00000004
C2          2      6          -1.22429043      1.30859219      0.00000004
H3          3      1          -4.89234474     -0.26992035     -0.00432578
H4          4      1          -4.74786713      3.18761615      0.00432563
H5          5      1          -0.23258806     -0.46463501      0.00432578
H6          6      1          -0.08811038      2.99290320     -0.00432562
[Charge] (Mulliken)
  0.000000000000000E+000
  0.000000000000000E+000
  0.000000000000000E+000
  0.000000000000000E+000
  0.000000000000000E+000
  0.000000000000000E+000
[GTO] (AU)
   1
   s   6
  3.047524880E+03  1.834737132E-03
  4.573695180E+02  1.403732281E-02
  1.039486850E+02  6.884262227E-02
  2.921015530E+01  2.321844432E-01
  9.286662960E+00  4.679413484E-01
  3.163926960E+00  3.623119853E-01
   s   3
  7.868272350E+00 -1.193324198E-01
  1.881288540E+00 -1.608541517E-01
  5.442492580E-01  1.143456438E+00
   s   1
  1.687144782E-01  1.000000000E+00
   p   3
  7.868272350E+00  6.899906659E-02
  1.881288540E+00  3.164239610E-01
  5.442492580E-01  7.443082909E-01
   p   1
  1.687144782E-01  1.000000000E+00
   d   1
  8.000000000E-01  1.000000000E+00
 
   2
   s   6
  3.047524880E+03  1.834737132E-03
  4.573695180E+02  1.403732281E-02
  1.039486850E+02  6.884262227E-02
  2.921015530E+01  2.321844432E-01
  9.286662960E+00  4.679413484E-01
  3.163926960E+00  3.623119853E-01
   s   3
  7.868272350E+00 -1.193324198E-01
  1.881288540E+00 -1.608541517E-01
  5.442492580E-01  1.143456438E+00
   s   1
  1.687144782E-01  1.000000000E+00
   p   3
  7.868272350E+00  6.899906659E-02
  1.881288540E+00  3.164239610E-01
  5.442492580E-01  7.443082909E-01
   p   1
  1.687144782E-01  1.000000000E+00
   d   1
  8.000000000E-01  1.000000000E+00
 
   3
   s   3
  1.873113696E+01  3.349460434E-02
  2.825394365E+00  2.347269535E-01
  6.401216923E-01  8.137573261E-01
   s   1
  1.612777588E-01  1.000000000E+00
 
   4
   s   3
  1.873113696E+01  3.349460434E-02
  2.825394365E+00  2.347269535E-01
  6.401216923E-01  8.137573261E-01
   s   1
  1.612777588E-01  1.000000000E+00
 
   5
   s   3
  1.873113696E+01  3.349460434E-02
  2.825394365E+00  2.347269535E-01
  6.401216923E-01  8.137573261E-01
   s   1
  1.612777588E-01  1.000000000E+00
 
   6
   s   3
  1.873113696E+01  3.349460434E-02
  2.825394365E+00  2.347269535E-01
  6.401216923E-01  8.137573261E-01
   s   1
  1.612777588E-01  1.000000000E+00
 
[MO]
Sym=     1a  
Ene=   -11.2440
Spin= Alpha
Occup=    2.00000
   1         0.70377075
   2         0.01940030
   3        -0.00528903
   4         0.00015139
   5        -0.00000633
   6         0.00000001
   7         0.00047435
   8        -0.00001982
   9        -0.00000000
  10        -0.00145544
  11        -0.00161141
  12        -0.00198513
  13        -0.00000754
  14         0.00000010
  15         0.00000238
  16         0.70377353
  17         0.01940038
  18        -0.00528908
  19        -0.00015140
  20         0.00000633
  21         0.00000001
  22        -0.00047434
  23         0.00001982
  24        -0.00000000
  25        -0.00145545
  26        -0.00161141
  27        -0.00198514
  28        -0.00000754
  29        -0.00000010
  30        -0.00000238
  31        -0.00012751
  32         0.00143454
  33        -0.00012751
  34         0.00143454
  35        -0.00012751
  36         0.00143455
  37        -0.00012751
  38         0.00143455
Sym=     2a  
Ene=   -11.2420
Spin= Alpha
Occup=    2.00000
   1        -0.70419969
   2        -0.01968855
   3         0.01052974
   4        -0.00071401
   5         0.00002984
   6        -0.00000000
   7         0.00163439
   8        -0.00006830
   9         0.00000001
  10         0.00073398
  11         0.00130240
  12         0.00175921
  13         0.00002747
  14        -0.00000008
  15        -0.00000184
  16         0.70419690
  17         0.01968848
  18        -0.01052972
  19        -0.00071401
  20         0.00002984
  21         0.00000000
  22         0.00163440
  23        -0.00006830
  24        -0.00000001
  25        -0.00073397
  26        -0.00130240
  27        -0.00175920
  28        -0.00002747
  29        -0.00000008
  30        -0.00000184
  31         0.00004744
  32        -0.00144937
  33         0.00004744
  34        -0.00144937
  35        -0.00004744
  36         0.00144936
  37        -0.00004744
  38         0.00144936
Sym=     3a  
Ene=    -1.0407
Spin= Alpha
Occup=    2.00000
   1        -0.15644041
   2         0.30466063
   3         0.21809020
   4         0.11899521
   5        -0.00497236
   6         0.00000002
   7         0.01005970
   8        -0.00042036
   9         0.00000000
  10         0.01992009
  11         0.00626128
  12        -0.01558436
  13        -0.00066020
  14         0.00000282
  15         0.00006688
  16        -0.15644045
  17         0.30466072
  18         0.21809024
  19        -0.11899519
  20         0.00497236
  21         0.00000001
  22        -0.01005971
  23         0.00042036
  24         0.00000000
  25         0.01992006
  26         0.00626132
  27        -0.01558436
  28        -0.00066020
  29        -0.00000282
  30        -0.00006688
  31         0.08072842
  32         0.01708521
  33         0.08072843
  34         0.01708521
  35         0.08072852
  36         0.01708523
  37         0.08072851
  38         0.01708523
Sym=     4a  
Ene=    -0.8001
Spin= Alpha
Occup=    2.00000
   1         0.12223429
   2        -0.23400281
   3        -0.27916807
   4         0.16196583
   5        -0.00676797
   6         0.00000001
   7         0.04375203
   8        -0.00182824
   9        -0.00000005
  10         0.00281012
  11        -0.02404851
  12         0.00907619
  13        -0.00129821
  14        -0.00000499
  15        -0.00011969
  16        -0.12223424
  17         0.23400273
  18         0.27916790
  19         0.16196558
  20        -0.00676796
  21         0.00000000
  22         0.04375194
  23        -0.00182824
  24         0.00000006
  25        -0.00281016
  26         0.02404853
  27        -0.00907619
  28         0.00129821
  29        -0.00000498
  30        -0.00011969
  31        -0.14408658
  32        -0.06416147
  33        -0.14408661
  34        -0.06416147
  35         0.14408650
  36         0.06416142
  37         0.14408647
  38         0.06416142
Sym=     5a  
Ene=    -0.6516
Spin= Alpha
Occup=    2.00000
   1         0.00000001
   2        -0.00000001
   3        -0.00000002
   4         0.01367155
   5         0.32717782
   6         0.00027381
   7         0.00574165
   8         0.13740494
   9        -0.00033729
  10        -0.00071346
  11         0.00071345
  12         0.00000000
  13        -0.00984040
  14        -0.00006705
  15         0.00000285
  16        -0.00000001
  17         0.00000001
  18         0.00000002
  19         0.01367158
  20         0.32717856
  21        -0.00027382
  22         0.00574166
  23         0.13740531
  24         0.00033729
  25         0.00071346
  26        -0.00071346
  27        -0.00000000
  28         0.00984045
  29        -0.00006705
  30         0.00000285
  31        -0.15470676
  32        -0.09663479
  33         0.15470675
  34         0.09663477
  35        -0.15470719
  36        -0.09663498
  37         0.15470721
  38         0.09663500
Sym=     6a  
Ene=    -0.5970
Spin= Alpha
Occup=    2.00000
   1         0.00626261
   2        -0.02270715
   3         0.02528378
   4        -0.40899299
   5         0.01709032
   6         0.00000023
   7        -0.14709084
   8         0.00614639
   9         0.00000021
  10        -0.01710243
  11         0.02736956
  12         0.00081799
  13         0.00214955
  14         0.00000357
  15         0.00008664
  16         0.00626247
  17        -0.02270684
  18         0.02528416
  19         0.40899308
  20        -0.01709033
  21         0.00000025
  22         0.14709084
  23        -0.00614639
  24         0.00000022
  25        -0.01710250
  26         0.02736960
  27         0.00081799
  28         0.00214956
  29        -0.00000358
  30        -0.00008664
  31         0.12617370
  32         0.09872359
  33         0.12617373
  34         0.09872361
  35         0.12617381
  36         0.09872369
  37         0.12617377
  38         0.09872367
Sym=     7a  
Ene=    -0.5132
Spin= Alpha
Occup=    2.00000
   1         0.00000000
   2        -0.00000000
   3         0.00000001
   4        -0.01303953
   5        -0.31205210
   6        -0.00392384
   7        -0.00872132
   8        -0.20871217
   9        -0.00273014
  10         0.00245295
  11        -0.00245295
  12        -0.00000000
  13         0.03383258
  14        -0.00011955
  15         0.00000496
  16         0.00000000
  17        -0.00000000
  18         0.00000001
  19         0.01303950
  20         0.31205141
  21        -0.00392384
  22         0.00872131
  23         0.20871184
  24        -0.00273015
  25         0.00245294
  26        -0.00245294
  27        -0.00000000
  28         0.03383253
  29         0.00011956
  30        -0.00000495
  31         0.18662964
  32         0.14181120
  33        -0.18662962
  34        -0.14181117
  35        -0.18662927
  36        -0.14181077
  37         0.18662929
  38         0.14181080
Sym=     8a  
Ene=    -0.2248
Spin= Alpha
Occup=    1.00000
   1        -0.00000004
   2         0.00000015
   3         0.00000038
   4        -0.00013547
   5        -0.00324443
   6         0.35770016
   7        -0.00007913
   8        -0.00189311
   9         0.31981424
  10         0.00002808
  11        -0.00002814
  12         0.00000004
  13         0.00038758
  14         0.03234092
  15        -0.00135141
  16        -0.00000004
  17         0.00000015
  18         0.00000038
  19         0.00013545
  20         0.00324439
  21         0.35768657
  22         0.00007910
  23         0.00189295
  24         0.31978973
  25         0.00002808
  26        -0.00002814
  27         0.00000003
  28         0.00038760
  29        -0.03234153
  30         0.00135143
  31         0.00181766
  32         0.00203248
  33        -0.00181790
  34        -0.00203327
  35        -0.00181794
  36        -0.00203341
  37         0.00181770
  38         0.00203262
Sym=     9a  
Ene=     0.0333
Spin= Alpha
Occup=    1.00000
   1        -0.00000049
   2         0.00000094
   3         0.00000807
   4         0.00004755
   5         0.00114067
   6        -0.38031146
   7         0.00018384
   8         0.00437529
   9        -0.68511467
  10         0.00003902
  11        -0.00003901
  12        -0.00000007
  13         0.00053883
  14         0.01679152
  15        -0.00070166
  16         0.00000049
  17        -0.00000094
  18        -0.00000807
  19         0.00004753
  20         0.00114078
  21         0.38032425
  22         0.00018379
  23         0.00437535
  24         0.68512609
  25        -0.00003902
  26         0.00003901
  27         0.00000008
  28        -0.00053882
  29         0.01679036
  30        -0.00070161
  31         0.00118562
  32         0.00403990
  33        -0.00118589
  34        -0.00404688
  35         0.00118583
  36         0.00404680
  37        -0.00118555
  38        -0.00403982
Sym=    10a  
Ene=     0.2636
Spin= Alpha
Occup=    0.00000
   1         0.07816839
   2        -0.08671487
   3        -1.49848073
   4         0.13851387
   5        -0.00578796
   6         0.00000013
   7         0.65086833
   8        -0.02719734
   9         0.00000018
  10        -0.00310467
  11         0.01056890
  12         0.00387764
  13         0.00066091
  14        -0.00000118
  15        -0.00002800
  16         0.07816842
  17        -0.08671479
  18        -1.49848283
  19        -0.13851399
  20         0.00578797
  21         0.00000012
  22        -0.65086686
  23         0.02719728
  24         0.00000013
  25        -0.00310467
  26         0.01056893
  27         0.00387765
  28         0.00066091
  29         0.00000117
  30         0.00002800
  31         0.01198536
  32         1.04238957
  33         0.01198536
  34         1.04238957
  35         0.01198549
  36         1.04238973
  37         0.01198549
  38         1.04238973
Sym=    11a  
Ene=     0.2867
Spin= Alpha
Occup=    0.00000
   1         0.00000004
   2        -0.00000004
   3        -0.00000062
   4         0.01044956
   5         0.25007063
   6         0.00190168
   7         0.03354684
   8         0.80281812
   9         0.00673460
  10         0.00197174
  11        -0.00197174
  12         0.00000000
  13         0.02719543
  14        -0.00008375
  15         0.00000352
  16        -0.00000004
  17         0.00000004
  18         0.00000062
  19         0.01044955
  20         0.25007040
  21        -0.00190168
  22         0.03354689
  23         0.80281942
  24        -0.00673461
  25        -0.00197174
  26         0.00197174
  27        -0.00000000
  28        -0.02719546
  29        -0.00008375
  30         0.00000352
  31         0.04658831
  32         1.09685354
  33        -0.04658829
  34        -1.09685282
  35         0.04658824
  36         1.09685391
  37        -0.04658826
  38        -1.09685462
Sym=    12a  
Ene=     0.3068
Spin= Alpha
Occup=    0.00000
   1         0.10983605
   2        -0.10497449
   3        -1.97709332
   4         0.08426187
   5        -0.00352107
   6        -0.00000135
   7         0.12612247
   8        -0.00527049
   9        -0.00000274
  10         0.00778041
  11        -0.00084332
  12         0.00859331
  13        -0.00041684
  14         0.00000274
  15         0.00006394
  16        -0.10983605
  17         0.10497463
  18         1.97709257
  19         0.08426153
  20        -0.00352106
  21         0.00000136
  22         0.12612147
  23        -0.00527045
  24         0.00000275
  25        -0.00778037
  26         0.00084329
  27        -0.00859331
  28         0.00041683
  29         0.00000274
  30         0.00006394
  31         0.01958635
  32         1.07413212
  33         0.01958637
  34         1.07413299
  35        -0.01958641
  36        -1.07413249
  37        -0.01958639
  38        -1.07413162
Sym=    13a  
Ene=     0.3869
Spin= Alpha
Occup=    0.00000
   1         0.00000000
   2        -0.00000000
   3        -0.00000016
   4        -0.01047497
   5        -0.25067966
   6        -0.00087888
   7        -0.07788769
   8        -1.86395497
   9        -0.00217330
  10         0.00104874
  11        -0.00104874
  12         0.00000000
  13         0.01446492
  14        -0.00009081
  15         0.00000379
  16         0.00000000
  17        -0.00000000
  18        -0.00000016
  19         0.01047497
  20         0.25067977
  21        -0.00087888
  22         0.07788775
  23         1.86395640
  24        -0.00217329
  25         0.00104875
  26        -0.00104875
  27         0.00000000
  28         0.01446501
  29         0.00009081
  30        -0.00000378
  31         0.03547363
  32        -1.62813760
  33        -0.03547364
  34         1.62813780
  35        -0.03547393
  36         1.62813904
  37         0.03547392
  38        -1.62813884
Sym=    14a  
Ene=     0.4871
Spin= Alpha
Occup=    0.00000
   1        -0.06636684
   2         0.00411098
   3         2.92355952
   4         0.15991544
   5        -0.00668228
   6         0.00000021
   7         2.91556397
   8        -0.12183062
   9         0.00000061
  10        -0.00157594
  11         0.02306954
  12        -0.00894759
  13         0.00119124
  14         0.00000719
  15         0.00017186
  16         0.06636686
  17        -0.00411098
  18        -2.92356072
  19         0.15991492
  20        -0.00668225
  21        -0.00000020
  22         2.91556388
  23        -0.12183062
  24        -0.00000042
  25         0.00157599
  26        -0.02306968
  27         0.00894765
  28        -0.00119125
  29         0.00000719
  30         0.00017186
  31         0.06860946
  32         0.60032996
  33         0.06860946
  34         0.60033009
  35        -0.06861004
  36        -0.60032848
  37        -0.06861004
  38        -0.60032835
Sym=    15a  
Ene=     0.6581
Spin= Alpha
Occup=    0.00000
   1        -0.02453412
   2        -0.23768022
   3        -0.12275489
   4        -0.54622377
   5         0.02282465
   6        -0.00000022
   7         1.00530042
   8        -0.04200781
   9         0.00000013
  10        -0.08541904
  11         0.03225975
  12        -0.00053065
  13         0.00568801
  14         0.00000249
  15         0.00005969
  16        -0.02453397
  17        -0.23767968
  18        -0.12276134
  19         0.54622460
  20        -0.02282469
  21        -0.00000018
  22        -1.00529378
  23         0.04200753
  24         0.00000006
  25        -0.08541884
  26         0.03225978
  27        -0.00053063
  28         0.00568800
  29        -0.00000249
  30        -0.00005969
  31         0.08588389
  32         0.03781335
  33         0.08588390
  34         0.03781341
  35         0.08588427
  36         0.03781072
  37         0.08588426
  38         0.03781066
Sym=    16a  
Ene=     0.7521
Spin= Alpha
Occup=    0.00000
   1        -0.00000001
   2        -0.00000002
   3         0.00000012
   4        -0.01711675
   5        -0.40962674
   6        -0.00007707
   7         0.03270026
   8         0.78256112
   9         0.00463257
  10         0.00658284
  11        -0.00658284
  12         0.00000000
  13         0.09079463
  14         0.00004053
  15        -0.00000169
  16         0.00000001
  17         0.00000002
  18        -0.00000012
  19        -0.01711672
  20        -0.40962593
  21         0.00007703
  22         0.03270027
  23         0.78256137
  24        -0.00463254
  25        -0.00658283
  26         0.00658283
  27        -0.00000000
  28        -0.09079450
  29         0.00004054
  30        -0.00000170
  31         0.38141665
  32         0.07599891
  33        -0.38141668
  34        -0.07599900
  35         0.38141600
  36         0.07600102
  37        -0.38141597
  38        -0.07600092
Sym=    17a  
Ene=     0.7717
Spin= Alpha
Occup=    0.00000
   1         0.00000002
   2         0.00000058
   3        -0.00000134
   4        -0.00008532
   5        -0.00203762
   6         0.74782759
   7         0.00003171
   8         0.00074505
   9        -0.63431178
  10         0.00000584
  11        -0.00000572
  12         0.00000002
  13         0.00008007
  14         0.06728949
  15        -0.00281178
  16         0.00000002
  17         0.00000058
  18        -0.00000134
  19         0.00008527
  20         0.00203760
  21         0.74782768
  22        -0.00003166
  23        -0.00074502
  24        -0.63431191
  25         0.00000585
  26        -0.00000571
  27         0.00000002
  28         0.00008007
  29        -0.06728948
  30         0.00281178
  31         0.00020398
  32        -0.00162379
  33        -0.00020350
  34         0.00162444
  35        -0.00020349
  36         0.00162445
  37         0.00020396
  38        -0.00162379
Sym=    18a  
Ene=     0.8491
Spin= Alpha
Occup=    0.00000
   1         0.04165544
   2         0.78677847
   3        -1.58110872
   4        -0.00316234
   5         0.00013215
   6        -0.00000050
   7         0.40532545
   8        -0.01693719
   9         0.00000044
  10         0.09191578
  11         0.15507048
  12        -0.04006017
  13         0.00305259
  14         0.00001645
  15         0.00039443
  16         0.04165564
  17         0.78677879
  18        -1.58111776
  19         0.00316269
  20        -0.00013217
  21        -0.00000050
  22        -0.40531783
  23         0.01693687
  24         0.00000041
  25         0.09191579
  26         0.15507057
  27        -0.04006023
  28         0.00305259
  29        -0.00001644
  30        -0.00039443
  31         0.38075384
  32         0.27773640
  33         0.38075383
  34         0.27773661
  35         0.38075419
  36         0.27773510
  37         0.38075421
  38         0.27773490
Sym=    19a  
Ene=     0.8724
Spin= Alpha
Occup=    0.00000
   1         0.00000004
   2         0.00000018
   3        -0.00000059
   4        -0.00008889
   5        -0.00211782
   6         0.80264494
   7         0.00010823
   8         0.00258124
   9        -1.10325710
  10        -0.00002716
  11         0.00002727
  12        -0.00000003
  13        -0.00037580
  14        -0.02464153
  15         0.00102968
  16        -0.00000004
  17        -0.00000018
  18         0.00000059
  19        -0.00008883
  20        -0.00211782
  21        -0.80264485
  22         0.00010816
  23         0.00258124
  24         1.10325704
  25         0.00002716
  26        -0.00002727
  27         0.00000002
  28         0.00037580
  29        -0.02464154
  30         0.00102968
  31        -0.00034965
  32         0.00134369
  33         0.00035015
  34        -0.00134365
  35        -0.00035015
  36         0.00134365
  37         0.00034965
  38        -0.00134369
Sym=    20a  
Ene=     0.9304
Spin= Alpha
Occup=    0.00000
   1         0.09101605
   2         0.05242624
   3        -0.84173261
   4        -0.60287189
   5         0.02519176
   6        -0.00000057
   7         0.53887538
   8        -0.02251760
   9         0.00000058
  10         0.16968724
  11         0.05259673
  12        -0.09337845
  13        -0.00565957
  14         0.00002657
  15         0.00063586
  16        -0.09101602
  17        -0.05242628
  18         0.84173044
  19        -0.60287122
  20         0.02519173
  21         0.00000053
  22         0.53887257
  23        -0.02251748
  24        -0.00000054
  25        -0.16968726
  26        -0.05259661
  27         0.09337841
  28         0.00565957
  29         0.00002655
  30         0.00063586
  31         0.37585374
  32         0.11273379
  33         0.37585368
  34         0.11273388
  35        -0.37585304
  36        -0.11273313
  37        -0.37585310
  38        -0.11273304
Sym=    21a  
Ene=     1.1027
Spin= Alpha
Occup=    0.00000
   1        -0.00000000
   2         0.00000010
   3        -0.00000015
   4        -0.02836039
   5        -0.67869833
   6        -0.00273010
   7         0.04612064
   8         1.10372207
   9         0.00453422
  10        -0.01416997
  11         0.01416998
  12         0.00000001
  13        -0.19544138
  14        -0.00003788
  15         0.00000154
  16         0.00000000
  17        -0.00000010
  18         0.00000015
  19        -0.02836022
  20        -0.67869423
  21         0.00273009
  22         0.04612016
  23         1.10371071
  24        -0.00453420
  25         0.01416996
  26        -0.01416997
  27        -0.00000001
  28         0.19544121
  29        -0.00003788
  30         0.00000155
  31        -0.38304478
  32         1.07320090
  33         0.38304463
  34        -1.07320056
  35        -0.38304349
  36         1.07319440
  37         0.38304365
  38        -1.07319474
Sym=    22a  
Ene=     1.1483
Spin= Alpha
Occup=    0.00000
   1         0.00000001
   2        -0.00000034
   3         0.00000053
   4         0.03851774
   5         0.92177651
   6         0.00205786
   7        -0.12332622
   8        -2.95135324
   9        -0.00442574
  10        -0.00002316
  11         0.00002314
  12        -0.00000004
  13        -0.00031894
  14         0.00000535
  15        -0.00000020
  16         0.00000001
  17        -0.00000034
  18         0.00000053
  19        -0.03851790
  20        -0.92178030
  21         0.00205787
  22         0.12332654
  23         2.95136110
  24        -0.00442575
  25        -0.00002310
  26         0.00002307
  27        -0.00000004
  28        -0.00031806
  29        -0.00000535
  30         0.00000020
  31         0.15153739
  32        -1.52302658
  33        -0.15153709
  34         1.52302606
  35        -0.15153854
  36         1.52303228
  37         0.15153884
  38        -1.52303280
Sym=    23a  
Ene=     1.2078
Spin= Alpha
Occup=    0.00000
   1        -0.01821165
   2         0.92528749
   3        -1.73694389
   4        -0.37320213
   5         0.01559508
   6        -0.00000013
   7         0.49848275
   8        -0.02083101
   9         0.00000004
  10         0.09925647
  11        -0.06153438
  12         0.12102733
  13        -0.00777184
  14        -0.00002642
  15        -0.00063203
  16        -0.01821219
  17         0.92529363
  18        -1.73694247
  19         0.37321411
  20        -0.01559558
  21        -0.00000010
  22        -0.49851126
  23         0.02083220
  24         0.00000001
  25         0.09925917
  26        -0.06153698
  27         0.12102925
  28        -0.00777210
  29         0.00002642
  30         0.00063204
  31        -0.45429795
  32         0.87513454
  33        -0.45429796
  34         0.87513578
  35        -0.45430754
  36         0.87515472
  37        -0.45430753
  38         0.87515348
Sym=    24a  
Ene=     1.2171
Spin= Alpha
Occup=    0.00000
   1        -0.02086397
   2         0.46495711
   3        -0.55627004
   4        -0.61073966
   5         0.02552067
   6         0.00000002
   7         1.21960174
   8        -0.05096284
   9         0.00000015
  10         0.13570179
  11        -0.10934384
  12         0.10222360
  13        -0.01184424
  14        -0.00002372
  15        -0.00056722
  16         0.02086358
  17        -0.46493933
  18         0.55623669
  19        -0.61073228
  20         0.02552036
  21        -0.00000006
  22         1.21959151
  23        -0.05096241
  24        -0.00000007
  25        -0.13570007
  26         0.10934269
  27        -0.10222116
  28         0.01184410
  29        -0.00002373
  30        -0.00056721
  31        -0.47597279
  32         0.97998196
  33        -0.47597293
  34         0.97998240
  35         0.47596379
  36        -0.97996527
  37         0.47596364
  38        -0.97996483
Sym=    25a  
Ene=     1.3082
Spin= Alpha
Occup=    0.00000
   1         0.03182170
   2         1.49015160
   3        -5.48415705
   4         0.28460748
   5        -0.01189269
   6         0.00000006
   7        -1.92510050
   8         0.08044277
   9         0.00000023
  10        -0.03291948
  11         0.19492569
  12         0.05800872
  13         0.01101291
  14         0.00003308
  15         0.00079126
  16        -0.03182168
  17        -1.49015359
  18         5.48416011
  19         0.28460709
  20        -0.01189267
  21        -0.00000004
  22        -1.92510083
  23         0.08044279
  24        -0.00000035
  25         0.03291926
  26        -0.19492552
  27        -0.05800892
  28        -0.01101289
  29         0.00003309
  30         0.00079125
  31         0.11273958
  32         0.35406070
  33         0.11273956
  34         0.35406077
  35        -0.11273837
  36        -0.35406249
  37        -0.11273839
  38        -0.35406242
Sym=    26a  
Ene=     1.4675
Spin= Alpha
Occup=    0.00000
   1         0.00000000
   2        -0.00000008
   3         0.00000002
   4         0.00133107
   5         0.03185320
   6         0.00203812
   7        -0.10626042
   8        -2.54295012
   9        -0.00335281
  10        -0.01221716
  11         0.01221715
  12        -0.00000002
  13        -0.16850647
  14        -0.00488797
  15         0.00020420
  16         0.00000000
  17        -0.00000008
  18         0.00000002
  19        -0.00133108
  20        -0.03185351
  21         0.00203812
  22         0.10626054
  23         2.54295305
  24        -0.00335281
  25        -0.01221721
  26         0.01221721
  27        -0.00000002
  28        -0.16850720
  29         0.00488797
  30        -0.00020421
  31        -0.69676636
  32        -0.67443363
  33         0.69676643
  34         0.67443363
  35         0.69676725
  36         0.67443499
  37        -0.69676719
  38        -0.67443499
Sym=    27a  
Ene=     1.7130
Spin= Alpha
Occup=    0.00000
   1        -0.00000001
   2         0.00000004
   3         0.00000003
   4        -0.00003812
   5        -0.00091316
   6         0.19212043
   7         0.00112373
   8         0.02689215
   9        -0.03541414
  10         0.00017047
  11        -0.00017043
  12        -0.00000005
  13         0.00235095
  14        -0.61859984
  15         0.02584899
  16        -0.00000001
  17         0.00000004
  18         0.00000003
  19         0.00003811
  20         0.00091317
  21         0.19212043
  22        -0.00112373
  23        -0.02689218
  24        -0.03541412
  25         0.00017040
  26        -0.00017043
  27         0.00000003
  28         0.00235096
  29         0.61859980
  30        -0.02584899
  31         0.00642179
  32         0.00850109
  33        -0.00642183
  34        -0.00850115
  35        -0.00642183
  36        -0.00850117
  37         0.00642180
  38         0.00850110
Sym=    28a  
Ene=     1.8089
Spin= Alpha
Occup=    0.00000
   1        -0.00014485
   2        -0.00175317
   3         0.00700119
   4        -0.00001801
   5         0.00000069
   6        -0.00000000
   7         0.00059759
   8        -0.00002494
   9        -0.00000000
  10         0.00001631
  11        -0.00193246
  12         0.00175463
  13        -0.00009424
  14         0.02845133
  15         0.68087725
  16         0.00014485
  17         0.00175317
  18        -0.00700119
  19        -0.00001801
  20         0.00000069
  21         0.00000000
  22         0.00059760
  23        -0.00002494
  24         0.00000000
  25        -0.00001631
  26         0.00193247
  27        -0.00175463
  28         0.00009419
  29         0.02845134
  30         0.68087755
  31        -0.00098580
  32        -0.00114440
  33        -0.00098579
  34        -0.00114447
  35         0.00098579
  36         0.00114447
  37         0.00098580
  38         0.00114440
Sym=    29a  
Ene=     2.1036
Spin= Alpha
Occup=    0.00000
   1        -0.00056531
   2        -0.00299831
   3         0.01184914
   4        -0.00135551
   5         0.00005669
   6         0.00000000
   7        -0.00459641
   8         0.00019216