[Molden Format]
[N_Atoms]
                     6
[Atoms] (AU)
C1          1      6          -3.74112861      1.41379860      0.00000000
C2          2      6          -1.23932586      1.30918336      0.00000000
H3          3      1          -4.89035232     -0.28126684      0.00000000
H4          4      1          -4.74497569      3.19879799      0.00000000
H5          5      1          -0.23547877     -0.47581603      0.00000000
H6          6      1          -0.09010214      3.00424880      0.00000000
[Charge] (Mulliken)
 -0.352998254904387     
 -0.352998254904401     
  0.176494152048646     
  0.176504102855719     
  0.176504102855723     
  0.176494152048641     
[GTO] (AU)
   1
   s   6
  3.047524880E+03  1.834737132E-03
  4.573695180E+02  1.403732281E-02
  1.039486850E+02  6.884262227E-02
  2.921015530E+01  2.321844432E-01
  9.286662960E+00  4.679413484E-01
  3.163926960E+00  3.623119853E-01
   s   3
  7.868272350E+00 -1.193324198E-01
  1.881288540E+00 -1.608541517E-01
  5.442492580E-01  1.143456438E+00
   s   1
  1.687144782E-01  1.000000000E+00
   p   3
  7.868272350E+00  6.899906659E-02
  1.881288540E+00  3.164239610E-01
  5.442492580E-01  7.443082909E-01
   p   1
  1.687144782E-01  1.000000000E+00
   d   1
  8.000000000E-01  1.000000000E+00
 
   2
   s   6
  3.047524880E+03  1.834737132E-03
  4.573695180E+02  1.403732281E-02
  1.039486850E+02  6.884262227E-02
  2.921015530E+01  2.321844432E-01
  9.286662960E+00  4.679413484E-01
  3.163926960E+00  3.623119853E-01
   s   3
  7.868272350E+00 -1.193324198E-01
  1.881288540E+00 -1.608541517E-01
  5.442492580E-01  1.143456438E+00
   s   1
  1.687144782E-01  1.000000000E+00
   p   3
  7.868272350E+00  6.899906659E-02
  1.881288540E+00  3.164239610E-01
  5.442492580E-01  7.443082909E-01
   p   1
  1.687144782E-01  1.000000000E+00
   d   1
  8.000000000E-01  1.000000000E+00
 
   3
   s   3
  1.873113696E+01  3.349460434E-02
  2.825394365E+00  2.347269535E-01
  6.401216923E-01  8.137573261E-01
   s   1
  1.612777588E-01  1.000000000E+00
 
   4
   s   3
  1.873113696E+01  3.349460434E-02
  2.825394365E+00  2.347269535E-01
  6.401216923E-01  8.137573261E-01
   s   1
  1.612777588E-01  1.000000000E+00
 
   5
   s   3
  1.873113696E+01  3.349460434E-02
  2.825394365E+00  2.347269535E-01
  6.401216923E-01  8.137573261E-01
   s   1
  1.612777588E-01  1.000000000E+00
 
   6
   s   3
  1.873113696E+01  3.349460434E-02
  2.825394365E+00  2.347269535E-01
  6.401216923E-01  8.137573261E-01
   s   1
  1.612777588E-01  1.000000000E+00
 
[MO]
Sym=     1a  
Ene=   -11.2280
Spin= Alpha
Occup=    2.00000
   1         0.70375493
   2         0.01918824
   3        -0.00529579
   4        -0.00014933
   5         0.00000624
   6         0.00000000
   7         0.00073459
   8        -0.00003067
   9         0.00000000
  10        -0.00131103
  11        -0.00163116
  12        -0.00186122
  13        -0.00001551
  14         0.00000000
  15        -0.00000000
  16         0.70375493
  17         0.01918824
  18        -0.00529579
  19         0.00014933
  20        -0.00000624
  21        -0.00000000
  22        -0.00073459
  23         0.00003067
  24         0.00000000
  25        -0.00131103
  26        -0.00163116
  27        -0.00186122
  28        -0.00001551
  29         0.00000000
  30        -0.00000000
  31        -0.00014187
  32         0.00146783
  33        -0.00014192
  34         0.00146781
  35        -0.00014192
  36         0.00146781
  37        -0.00014187
  38         0.00146783
Sym=     2a  
Ene=   -11.2260
Spin= Alpha
Occup=    2.00000
   1        -0.70423979
   2        -0.01968961
   3         0.01107056
   4        -0.00018419
   5         0.00000771
   6         0.00000000
   7         0.00165462
   8        -0.00006926
   9        -0.00000000
  10         0.00095516
  11         0.00126391
  12         0.00176065
  13         0.00001495
  14        -0.00000000
  15        -0.00000000
  16         0.70423979
  17         0.01968961
  18        -0.01107056
  19        -0.00018419
  20         0.00000771
  21         0.00000000
  22         0.00165462
  23        -0.00006926
  24         0.00000000
  25        -0.00095516
  26        -0.00126391
  27        -0.00176065
  28        -0.00001495
  29         0.00000000
  30        -0.00000000
  31         0.00005964
  32        -0.00152258
  33         0.00005968
  34        -0.00152253
  35        -0.00005968
  36         0.00152253
  37        -0.00005964
  38         0.00152258
Sym=     3a  
Ene=    -1.0297
Spin= Alpha
Occup=    2.00000
   1        -0.15745531
   2         0.29808182
   3         0.22999772
   4         0.10706478
   5        -0.00447841
   6         0.00000000
   7         0.00648459
   8        -0.00027009
   9        -0.00000000
  10         0.01714192
  11         0.00464301
  12        -0.01280964
  13        -0.00060514
  14        -0.00000000
  15         0.00000000
  16        -0.15745531
  17         0.29808182
  18         0.22999772
  19        -0.10706478
  20         0.00447841
  21         0.00000000
  22        -0.00648459
  23         0.00027009
  24         0.00000000
  25         0.01714192
  26         0.00464301
  27        -0.01280964
  28        -0.00060514
  29        -0.00000000
  30         0.00000000
  31         0.08230389
  32         0.01599543
  33         0.08230217
  34         0.01599358
  35         0.08230217
  36         0.01599358
  37         0.08230389
  38         0.01599543
Sym=     4a  
Ene=    -0.7873
Spin= Alpha
Occup=    2.00000
   1         0.11946611
   2        -0.23134334
   3        -0.23513472
   4         0.16741427
   5        -0.00699992
   6         0.00000000
   7         0.06716747
   8        -0.00280830
   9        -0.00000000
  10        -0.00115252
  11        -0.02380316
  12         0.01093533
  13        -0.00109420
  14        -0.00000000
  15        -0.00000000
  16        -0.11946611
  17         0.23134334
  18         0.23513472
  19         0.16741427
  20        -0.00699992
  21         0.00000000
  22         0.06716747
  23        -0.00280830
  24         0.00000000
  25         0.00115252
  26         0.02380316
  27        -0.01093533
  28         0.00109420
  29         0.00000000
  30        -0.00000000
  31        -0.14626142
  32        -0.06709645
  33        -0.14626775
  34        -0.06709913
  35         0.14626775
  36         0.06709913
  37         0.14626142
  38         0.06709645
Sym=     5a  
Ene=    -0.6375
Spin= Alpha
Occup=    2.00000
   1         0.00000030
   2        -0.00000057
   3        -0.00000146
   4         0.01341810
   5         0.32098334
   6         0.00000000
   7         0.00540023
   8         0.12915564
   9         0.00000000
  10        -0.00094323
  11         0.00094298
  12         0.00000004
  13        -0.01302689
  14         0.00000000
  15        -0.00000000
  16        -0.00000030
  17         0.00000057
  18         0.00000146
  19         0.01341810
  20         0.32098334
  21        -0.00000000
  22         0.00540023
  23         0.12915564
  24        -0.00000000
  25         0.00094323
  26        -0.00094298
  27        -0.00000004
  28         0.01302689
  29         0.00000000
  30        -0.00000000
  31        -0.15728009
  32        -0.10821380
  33         0.15727447
  34         0.10821050
  35        -0.15727447
  36        -0.10821050
  37         0.15728009
  38         0.10821380
Sym=     6a  
Ene=    -0.5839
Spin= Alpha
Occup=    2.00000
   1         0.01197257
   2        -0.02844139
   3         0.01576216
   4        -0.40669301
   5         0.01703075
   6        -0.00000000
   7        -0.15397928
   8         0.00645434
   9        -0.00000000
  10        -0.01140690
  11         0.02654230
  12        -0.00139648
  13         0.00183129
  14         0.00000000
  15         0.00000000
  16         0.01197257
  17        -0.02844139
  18         0.01576216
  19         0.40669301
  20        -0.01703075
  21         0.00000000
  22         0.15397928
  23        -0.00645434
  24         0.00000000
  25        -0.01140690
  26         0.02654230
  27        -0.00139648
  28         0.00183129
  29        -0.00000000
  30         0.00000000
  31         0.12501366
  32         0.10119991
  33         0.12505527
  34         0.10122600
  35         0.12505527
  36         0.10122600
  37         0.12501366
  38         0.10119991
Sym=     7a  
Ene=    -0.5011
Spin= Alpha
Occup=    2.00000
   1         0.00000319
   2        -0.00000806
   3        -0.00000545
   4        -0.01270220
   5        -0.30284942
   6        -0.00000000
   7        -0.00826627
   8        -0.19731875
   9         0.00000000
  10         0.00267180
  11        -0.00266982
  12        -0.00000036
  13         0.03686717
  14         0.00000000
  15         0.00000000
  16         0.00000319
  17        -0.00000806
  18        -0.00000545
  19         0.01270220
  20         0.30284942
  21        -0.00000000
  22         0.00826627
  23         0.19731875
  24        -0.00000000
  25         0.00267180
  26        -0.00266982
  27        -0.00000036
  28         0.03686717
  29        -0.00000000
  30         0.00000000
  31         0.18899204
  32         0.15587135
  33        -0.18896446
  34        -0.15584262
  35        -0.18896446
  36        -0.15584262
  37         0.18899204
  38         0.15587135
Sym=     8a  
Ene=    -0.3727
Spin= Alpha
Occup=    2.00000
   1        -0.00000000
   2         0.00000000
   3         0.00000000
   4         0.00000000
   5         0.00000000
   6         0.37486460
   7         0.00000000
   8        -0.00000000
   9         0.30503207
  10        -0.00000000
  11        -0.00000000
  12        -0.00000000
  13         0.00000000
  14         0.02545865
  15        -0.00106462
  16         0.00000000
  17         0.00000000
  18        -0.00000000
  19         0.00000000
  20        -0.00000000
  21         0.37486460
  22         0.00000000
  23         0.00000000
  24         0.30503207
  25         0.00000000
  26        -0.00000000
  27         0.00000000
  28         0.00000000
  29        -0.02545865
  30         0.00106462
  31         0.00000000
  32        -0.00000000
  33         0.00000000
  34         0.00000000
  35        -0.00000000
  36         0.00000000
  37        -0.00000000
  38        -0.00000000
Sym=     9a  
Ene=     0.1819
Spin= Alpha
Occup=    0.00000
   1         0.00000000
   2        -0.00000000
   3        -0.00000000
   4         0.00000000
   5        -0.00000000
   6        -0.34109215
   7        -0.00000000
   8        -0.00000000
   9        -0.74217826
  10         0.00000000
  11        -0.00000000
  12         0.00000000
  13         0.00000000
  14         0.02384890
  15        -0.00099729
  16        -0.00000000
  17         0.00000000
  18         0.00000000
  19        -0.00000000
  20         0.00000000
  21         0.34109215
  22        -0.00000000
  23         0.00000000
  24         0.74217826
  25         0.00000000
  26        -0.00000000
  27         0.00000000
  28         0.00000000
  29         0.02384890
  30        -0.00099729
  31        -0.00000000
  32        -0.00000000
  33         0.00000000
  34         0.00000000
  35        -0.00000000
  36        -0.00000000
  37        -0.00000000
  38        -0.00000000
Sym=    10a  
Ene=     0.2649
Spin= Alpha
Occup=    0.00000
   1         0.07790781
   2        -0.08029391
   3        -1.48198840
   4         0.14638505
   5        -0.00611391
   6        -0.00000000
   7         0.64544893
   8        -0.02694079
   9        -0.00000000
  10        -0.00389017
  11         0.01090447
  12         0.00456347
  13         0.00071570
  14        -0.00000000
  15         0.00000000
  16         0.07790781
  17        -0.08029391
  18        -1.48198840
  19        -0.14638505
  20         0.00611391
  21         0.00000000
  22        -0.64544893
  23         0.02694079
  24         0.00000000
  25        -0.00389017
  26         0.01090447
  27         0.00456347
  28         0.00071570
  29        -0.00000000
  30         0.00000000
  31         0.01413699
  32         1.03102398
  33         0.01413297
  34         1.03099939
  35         0.01413297
  36         1.03099939
  37         0.01413699
  38         1.03102398
Sym=    11a  
Ene=     0.2911
Spin= Alpha
Occup=    0.00000
   1        -0.00002019
   2         0.00002531
   3         0.00027287
   4         0.01058677
   5         0.25351920
   6        -0.00000000
   7         0.03324716
   8         0.79700326
   9        -0.00000000
  10         0.00163581
  11        -0.00163757
  12        -0.00000100
  13         0.02258254
  14         0.00000000
  15        -0.00000000
  16         0.00002019
  17        -0.00002531
  18        -0.00027287
  19         0.01058677
  20         0.25351920
  21        -0.00000000
  22         0.03324716
  23         0.79700326
  24         0.00000000
  25        -0.00163581
  26         0.00163757
  27         0.00000100
  28        -0.02258254
  29         0.00000000
  30         0.00000000
  31         0.04236922
  32         1.08595550
  33        -0.04237725
  34        -1.08629551
  35         0.04237725
  36         1.08629551
  37        -0.04236922
  38        -1.08595550
Sym=    12a  
Ene=     0.3082
Spin= Alpha
Occup=    0.00000
   1         0.10833021
   2        -0.10292704
   3        -1.92158178
   4         0.10023263
   5        -0.00414256
   6        -0.00000000
   7         0.16087253
   8        -0.00656698
   9         0.00000000
  10         0.00423420
  11        -0.00096082
  12         0.01098860
  13        -0.00024775
  14        -0.00000000
  15         0.00000000
  16        -0.10833021
  17         0.10292704
  18         1.92158178
  19         0.10023263
  20        -0.00414256
  21         0.00000000
  22         0.16087253
  23        -0.00656698
  24        -0.00000000
  25        -0.00423420
  26         0.00096082
  27        -0.01098860
  28         0.00024775
  29         0.00000000
  30        -0.00000000
  31         0.01779688
  32         1.07140254
  33         0.01778752
  34         1.07102709
  35        -0.01778752
  36        -1.07102709
  37        -0.01779688
  38        -1.07140254
Sym=    13a  
Ene=     0.3917
Spin= Alpha
Occup=    0.00000
   1         0.00000116
   2         0.00000258
   3        -0.00007527
   4        -0.01036458
   5        -0.24839942
   6        -0.00000000
   7        -0.07873748
   8        -1.88440778
   9         0.00000000
  10         0.00127693
  11        -0.00127611
  12        -0.00000021
  13         0.01757586
  14         0.00000000
  15         0.00000000
  16         0.00000116
  17         0.00000258
  18        -0.00007527
  19         0.01036458
  20         0.24839942
  21        -0.00000000
  22         0.07873748
  23         1.88440778
  24        -0.00000000
  25         0.00127693
  26        -0.00127611
  27        -0.00000021
  28         0.01757586
  29        -0.00000000
  30         0.00000000
  31         0.04031742
  32        -1.61911861
  33        -0.04032350
  34         1.61921209
  35        -0.04032350
  36         1.61921209
  37         0.04031742
  38        -1.61911861
Sym=    14a  
Ene=     0.4935
Spin= Alpha
Occup=    0.00000
   1        -0.06700165
   2         0.00119106
   3         3.14732848
   4         0.12945174
   5        -0.00541499
   6         0.00000000
   7         3.00749657
   8        -0.12577007
   9        -0.00000000
  10         0.00223438
  11         0.02325933
  12        -0.01191471
  13         0.00101729
  14        -0.00000000
  15        -0.00000000
  16         0.06700165
  17        -0.00119106
  18        -3.14732848
  19         0.12945174
  20        -0.00541499
  21         0.00000000
  22         3.00749657
  23        -0.12577007
  24        -0.00000000
  25        -0.00223438
  26        -0.02325933
  27         0.01191471
  28        -0.00101729
  29         0.00000000
  30        -0.00000000
  31         0.08008170
  32         0.57828715
  33         0.08005994
  34         0.57840642
  35        -0.08005994
  36        -0.57840642
  37        -0.08008170
  38        -0.57828715
Sym=    15a  
Ene=     0.6647
Spin= Alpha
Occup=    0.00000
   1        -0.02252716
   2        -0.21624847
   3        -0.18657500
   4        -0.55030677
   5         0.02296631
   6        -0.00000000
   7         1.03159212
   8        -0.04310749
   9         0.00000000
  10        -0.07723368
  11         0.03181735
  12        -0.00079605
  13         0.00527671
  14         0.00000000
  15        -0.00000000
  16        -0.02252716
  17        -0.21624847
  18        -0.18657500
  19         0.55030677
  20        -0.02296631
  21         0.00000000
  22        -1.03159212
  23         0.04310749
  24        -0.00000000
  25        -0.07723368
  26         0.03181735
  27        -0.00079605
  28         0.00527671
  29         0.00000000
  30         0.00000000
  31         0.09374469
  32         0.06013441
  33         0.09370748
  34         0.06026903
  35         0.09370748
  36         0.06026903
  37         0.09374469
  38         0.06013441
Sym=    16a  
Ene=     0.7687
Spin= Alpha
Occup=    0.00000
   1        -0.00000464
   2        -0.00001909
   3        -0.00006499
   4        -0.01666297
   5        -0.39964321
   6        -0.00000000
   7         0.03183869
   8         0.76573280
   9         0.00000000
  10         0.00672387
  11        -0.00674397
  12         0.00000312
  13         0.09294025
  14        -0.00000000
  15         0.00000000
  16         0.00000464
  17         0.00001909
  18         0.00006499
  19        -0.01666297
  20        -0.39964321
  21        -0.00000000
  22         0.03183869
  23         0.76573280
  24         0.00000000
  25        -0.00672387
  26         0.00674397
  27        -0.00000312
  28        -0.09294025
  29         0.00000000
  30         0.00000000
  31         0.39005835
  32         0.05872312
  33        -0.39012263
  34        -0.05875920
  35         0.39012263
  36         0.05875920
  37        -0.39005835
  38        -0.05872312
Sym=    17a  
Ene=     0.7738
Spin= Alpha
Occup=    0.00000
   1        -0.00000000
   2         0.00000000
   3        -0.00000000
   4         0.00000000
   5        -0.00000000
   6         0.73735090
   7        -0.00000000
   8         0.00000000
   9        -0.63956362
  10        -0.00000000
  11         0.00000000
  12        -0.00000000
  13         0.00000000
  14         0.06950443
  15        -0.00290621
  16         0.00000000
  17         0.00000000
  18         0.00000000
  19         0.00000000
  20        -0.00000000
  21         0.73735090
  22        -0.00000000
  23         0.00000000
  24        -0.63956362
  25        -0.00000000
  26        -0.00000000
  27         0.00000000
  28        -0.00000000
  29        -0.06950443
  30         0.00290621
  31         0.00000000
  32        -0.00000000
  33        -0.00000000
  34         0.00000000
  35         0.00000000
  36         0.00000000
  37        -0.00000000
  38        -0.00000000
Sym=    18a  
Ene=     0.8526
Spin= Alpha
Occup=    0.00000
   1         0.04070146
   2         0.78555147
   3        -1.53397314
   4         0.00914800
   5        -0.00039877
   6         0.00000000
   7         0.37175890
   8        -0.01547816
   9        -0.00000000
  10         0.09243683
  11         0.15602249
  12        -0.04120088
  13         0.00307281
  14         0.00000000
  15         0.00000000
  16         0.04070146
  17         0.78555147
  18        -1.53397314
  19        -0.00914800
  20         0.00039877
  21        -0.00000000
  22        -0.37175890
  23         0.01547816
  24         0.00000000
  25         0.09243683
  26         0.15602249
  27        -0.04120088
  28         0.00307281
  29         0.00000000
  30         0.00000000
  31         0.38380768
  32         0.25321203
  33         0.38381340
  34         0.25315592
  35         0.38381340
  36         0.25315592
  37         0.38380768
  38         0.25321203
Sym=    19a  
Ene=     0.8919
Spin= Alpha
Occup=    0.00000
   1         0.00000000
   2        -0.00000000
   3        -0.00000000
   4        -0.00000000
   5         0.00000000
   6         0.81986386
   7        -0.00000000
   8        -0.00000000
   9        -1.07888358
  10        -0.00000000
  11        -0.00000000
  12         0.00000000
  13         0.00000000
  14        -0.03386830
  15         0.00141625
  16        -0.00000000
  17        -0.00000000
  18         0.00000000
  19         0.00000000
  20         0.00000000
  21        -0.81986386
  22        -0.00000000
  23        -0.00000000
  24         1.07888358
  25        -0.00000000
  26         0.00000000
  27         0.00000000
  28        -0.00000000
  29        -0.03386830
  30         0.00141625
  31         0.00000000
  32        -0.00000000
  33        -0.00000000
  34         0.00000000
  35        -0.00000000
  36        -0.00000000
  37        -0.00000000
  38        -0.00000000
Sym=    20a  
Ene=     0.9604
Spin= Alpha
Occup=    0.00000
   1         0.09720569
   2         0.07901467
   3        -1.11659386
   4        -0.58378556
   5         0.02433039
   6         0.00000000
   7         0.35890492
   8        -0.01484576
   9         0.00000000
  10         0.18138998
  11         0.05247505
  12        -0.09217243
  13        -0.00623560
  14        -0.00000000
  15         0.00000000
  16        -0.09720569
  17        -0.07901467
  18         1.11659386
  19        -0.58378556
  20         0.02433039
  21         0.00000000
  22         0.35890492
  23        -0.01484576
  24        -0.00000000
  25        -0.18138998
  26        -0.05247505
  27         0.09217243
  28         0.00623560
  29        -0.00000000
  30        -0.00000000
  31         0.38598009
  32         0.09257872
  33         0.38594662
  34         0.09241433
  35        -0.38594662
  36        -0.09241433
  37        -0.38598009
  38        -0.09257872
Sym=    21a  
Ene=     1.1070
Spin= Alpha
Occup=    0.00000
   1        -0.00000723
   2        -0.00001969
   3         0.00014839
   4        -0.02866514
   5        -0.68594200
   6         0.00000000
   7         0.04605330
   8         1.10009441
   9        -0.00000000
  10        -0.01348047
  11         0.01346135
  12         0.00000877
  13        -0.18574493
  14        -0.00000000
  15        -0.00000000
  16         0.00000723
  17         0.00001969
  18        -0.00014839
  19        -0.02866514
  20        -0.68594200
  21        -0.00000000
  22         0.04605330
  23         1.10009441
  24         0.00000000
  25         0.01348047
  26        -0.01346135
  27        -0.00000877
  28         0.18574493
  29        -0.00000000
  30        -0.00000000
  31        -0.37975682
  32         1.05956814
  33         0.37967028
  34        -1.05948218
  35        -0.37967028
  36         1.05948218
  37         0.37975682
  38        -1.05956814
Sym=    22a  
Ene=     1.1584
Spin= Alpha
Occup=    0.00000
   1        -0.00000086
   2         0.00001101
   3        -0.00012828
   4         0.03861027
   5         0.92435297
   6        -0.00000000
   7        -0.12108833
   8        -2.89963141
   9         0.00000000
  10        -0.00050604
  11         0.00050848
  12         0.00000247
  13        -0.00688403
  14         0.00000000
  15        -0.00000000
  16        -0.00000086
  17         0.00001101
  18        -0.00012828
  19        -0.03861027
  20        -0.92435297
  21        -0.00000000
  22         0.12108833
  23         2.89963141
  24        -0.00000000
  25        -0.00050604
  26         0.00050848
  27         0.00000247
  28        -0.00688403
  29         0.00000000
  30        -0.00000000
  31         0.16013152
  32        -1.48233856
  33        -0.16011294
  34         1.48245041
  35        -0.16011294
  36         1.48245041
  37         0.16013152
  38        -1.48233856
Sym=    23a  
Ene=     1.2035
Spin= Alpha
Occup=    0.00000
   1        -0.01789428
   2         0.92851407
   3        -1.73181140
   4        -0.36926564
   5         0.01543199
   6         0.00000000
   7         0.49230821
   8        -0.02060077
   9        -0.00000000
  10         0.10047354
  11        -0.05714985
  12         0.11638086
  13        -0.00761769
  14        -0.00000000
  15        -0.00000000
  16        -0.01789428
  17         0.92851407
  18        -1.73181140
  19         0.36926564
  20        -0.01543199
  21        -0.00000000
  22        -0.49230821
  23         0.02060077
  24         0.00000000
  25         0.10047354
  26        -0.05714985
  27         0.11638086
  28        -0.00761769
  29         0.00000000
  30        -0.00000000
  31        -0.45176345
  32         0.87119486
  33        -0.45175216
  34         0.87121289
  35        -0.45175216
  36         0.87121289
  37        -0.45176345
  38         0.87119486
Sym=    24a  
Ene=     1.2130
Spin= Alpha
Occup=    0.00000
   1        -0.01718505
   2         0.57461839
   3        -0.96520915
   4        -0.58981900
   5         0.02467282
   6         0.00000000
   7         1.07029677
   8        -0.04477127
   9        -0.00000000
  10         0.14292059
  11        -0.09311857
  12         0.09861611
  13        -0.01140159
  14        -0.00000000
  15        -0.00000000
  16         0.01718505
  17        -0.57461839
  18         0.96520915
  19        -0.58981900
  20         0.02467282
  21         0.00000000
  22         1.07029677
  23        -0.04477127
  24        -0.00000000
  25        -0.14292059
  26         0.09311857
  27        -0.09861611
  28         0.01140159
  29        -0.00000000
  30        -0.00000000
  31        -0.46072875
  32         1.00058874
  33        -0.46076510
  34         1.00068121
  35         0.46076510
  36        -1.00068121
  37         0.46072875
  38        -1.00058874
Sym=    25a  
Ene=     1.3389
Spin= Alpha
Occup=    0.00000
   1         0.03027360
   2         1.45013613
   3        -5.50647483
   4         0.34077935
   5        -0.01427699
   6        -0.00000000
   7        -2.06531383
   8         0.08643783
   9         0.00000000
  10        -0.06171532
  11         0.20958819
  12         0.05887933
  13         0.01311764
  14         0.00000000
  15         0.00000000
  16        -0.03027360
  17        -1.45013613
  18         5.50647483
  19         0.34077935
  20        -0.01427699
  21        -0.00000000
  22        -2.06531383
  23         0.08643783
  24        -0.00000000
  25         0.06171532
  26        -0.20958819
  27        -0.05887933
  28        -0.01311764
  29         0.00000000
  30         0.00000000
  31         0.14232249
  32         0.26277281
  33         0.14233202
  34         0.26266071
  35        -0.14233202
  36        -0.26266071
  37        -0.14232249
  38        -0.26277281
Sym=    26a  
Ene=     1.4794
Spin= Alpha
Occup=    0.00000
   1        -0.00000051
   2        -0.00002812
   3        -0.00011132
   4         0.00189393
   5         0.04612675
   6         0.00000000
   7        -0.10870583
   8        -2.60399372
   9         0.00000000
  10        -0.01202546
  11         0.01200430
  12         0.00001372
  13        -0.16578882
  14        -0.00000000
  15        -0.00000000
  16        -0.00000051
  17        -0.00002812
  18        -0.00011132
  19        -0.00189393
  20        -0.04612675
  21        -0.00000000
  22         0.10870583
  23         2.60399372
  24        -0.00000000
  25        -0.01202546
  26         0.01200430
  27         0.00001372
  28        -0.16578882
  29         0.00000000
  30        -0.00000000
  31        -0.69780501
  32        -0.68481265
  33         0.69784210
  34         0.68492798
  35         0.69784210
  36         0.68492798
  37        -0.69780501
  38        -0.68481265
Sym=    27a  
Ene=     1.7446
Spin= Alpha
Occup=    0.00000
   1         0.00000000
   2        -0.00000000
   3        -0.00000000
   4         0.00000000
   5        -0.00000000
   6         0.19632932
   7        -0.00000000
   8        -0.00000000
   9        -0.04554904
  10         0.00000000
  11         0.00000000
  12         0.00000000
  13         0.00000000
  14        -0.61683595
  15         0.02579605
  16        -0.00000000
  17         0.00000000
  18         0.00000000
  19        -0.00000000
  20         0.00000000
  21         0.19632932
  22        -0.00000000
  23         0.00000000
  24        -0.04554904
  25        -0.00000000
  26         0.00000000
  27        -0.00000000
  28         0.00000000
  29         0.61683595
  30        -0.02579605
  31         0.00000000
  32        -0.00000000
  33         0.00000000
  34        -0.00000000
  35         0.00000000
  36         0.00000000
  37         0.00000000
  38        -0.00000000
Sym=    28a  
Ene=     1.8184
Spin= Alpha
Occup=    0.00000
   1         0.00000000
   2        -0.00000000
   3         0.00000000
   4         0.00000000
   5         0.00000000
   6        -0.00000032
   7         0.00000000
   8        -0.00000000
   9        -0.00000056
  10         0.00000000
  11        -0.00000000
  12         0.00000000
  13        -0.00000000
  14         0.02840656
  15         0.67936949
  16         0.00000000
  17         0.00000000
  18        -0.00000000
  19         0.00000000
  20        -0.00000000
  21         0.00000032
  22         0.00000000
  23         0.00000000
  24         0.00000056
  25        -0.00000000
  26        -0.00000000
  27        -0.00000000
  28         0.00000000
  29         0.02840656
  30         0.67936949
  31        -0.00000000
  32         0.00000000
  33        -0.00000000
  34        -0.00000000
  35        -0.00000000
  36         0.00000000
  37        -0.00000000
  38        -0.00000000
Sym=    29a  
Ene=     2.1345
Spin= Alpha
Occup=    0.00000
   1        -0.00000000
   2         0.00000000
   3        -0.00000000
   4         0.00000000
   5         0.00000000
   6         0.00000082
   7        -0.00000000
   8        -0.00000000