[Molden Format]
made by pyscf v[2.13.1]
[Atoms] (AU)
C   1   6     0.00000000000000     1.26026583578789     0.00000000000000
C   2   6     0.00000000000000    -1.26026583578789     0.00000000000000
H   3   1     0.00000000000000     2.32345974964118     1.74287671684983
H   4   1     0.00000000000000    -2.32345974964118     1.74287671684983
H   5   1     0.00000000000000     2.32345974964118    -1.74287671684983
H   6   1     0.00000000000000    -2.32345974964118    -1.74287671684983
[GTO]
1 0
 s    8 1.00
                  6665  0.00069158396281299
                  1000  0.0053257961529341
                   228   0.027060721042034
                 64.71    0.10165684614077
                 21.06     0.2745748236174
                 7.495    0.44829431892377
                 2.797    0.28490261071525
                0.5215   0.015194859206082
 s    8 1.00
                  6665  -0.00029326965268655
                  1000  -0.0023180354739745
                   228  -0.011499786038565
                 64.71  -0.046826727009787
                 21.06   -0.12846616875047
                 7.495   -0.30126627246289
                 2.797   -0.25563070233011
                0.5215      1.093793361012
 s    1 1.00
                0.1596                   1
 s    1 1.00
                0.0469                   1
 p    3 1.00
                 9.439   0.056979251590039
                 2.002    0.31320721150073
                0.5456    0.76037674173753
 p    1 1.00
                0.1517                   1
 p    1 1.00
               0.04041                   1
 d    1 1.00
                  0.55                   1
 d    1 1.00
                 0.151                   1

2 0
 s    8 1.00
                  6665  0.00069158396281299
                  1000  0.0053257961529341
                   228   0.027060721042034
                 64.71    0.10165684614077
                 21.06     0.2745748236174
                 7.495    0.44829431892377
                 2.797    0.28490261071525
                0.5215   0.015194859206082
 s    8 1.00
                  6665  -0.00029326965268655
                  1000  -0.0023180354739745
                   228  -0.011499786038565
                 64.71  -0.046826727009787
                 21.06   -0.12846616875047
                 7.495   -0.30126627246289
                 2.797   -0.25563070233011
                0.5215      1.093793361012
 s    1 1.00
                0.1596                   1
 s    1 1.00
                0.0469                   1
 p    3 1.00
                 9.439   0.056979251590039
                 2.002    0.31320721150073
                0.5456    0.76037674173753
 p    1 1.00
                0.1517                   1
 p    1 1.00
               0.04041                   1
 d    1 1.00
                  0.55                   1
 d    1 1.00
                 0.151                   1

3 0
 s    3 1.00
                 13.01   0.033498726389998
                 1.962    0.23480080117413
                0.4446     0.8136829578829
 s    1 1.00
                 0.122                   1
 s    1 1.00
               0.02974                   1
 p    1 1.00
                 0.727                   1
 p    1 1.00
                 0.141                   1

4 0
 s    3 1.00
                 13.01   0.033498726389998
                 1.962    0.23480080117413
                0.4446     0.8136829578829
 s    1 1.00
                 0.122                   1
 s    1 1.00
               0.02974                   1
 p    1 1.00
                 0.727                   1
 p    1 1.00
                 0.141                   1

5 0
 s    3 1.00
                 13.01   0.033498726389998
                 1.962    0.23480080117413
                0.4446     0.8136829578829
 s    1 1.00
                 0.122                   1
 s    1 1.00
               0.02974                   1
 p    1 1.00
                 0.727                   1
 p    1 1.00
                 0.141                   1

6 0
 s    3 1.00
                 13.01   0.033498726389998
                 1.962    0.23480080117413
                0.4446     0.8136829578829
 s    1 1.00
                 0.122                   1
 s    1 1.00
               0.02974                   1
 p    1 1.00
                 0.727                   1
 p    1 1.00
                 0.141                   1

[5d]
[7f]
[9g]

[MO]
 Sym= A
 Ene=               0
 Spin= Alpha
 Occup=    1.99638
   1    0.00046690360499415
   2     0.050551709593277
   3      0.11498938349102
   4     0.020075179369972
   5    -6.6287144891006e-11
   6      -0.4279574972644
   7    9.224829588958e-06
   8    -2.9798336866058e-11
   9     -0.11910012162587
  10    1.2825728764768e-06
  11    2.2860767332767e-11
  12    -0.0026241204383948
  13    -1.7660901092717e-07
  14    -0.024082130345249
  15    -4.2498453428853e-16
  16    1.5456751018062e-06
  17    -0.014756215192657
  18    9.4155897282811e-12
  19     0.040143467650308
  20    1.0492453228099e-15
  21    -1.5468675396302e-06
  22     0.025904447889444
  23    2.3690497277775e-12
  24    0.00046687660330232
  25     0.050551495991991
  26      0.11499250424595
  27     0.020076808835784
  28    -1.1687385242734e-10
  29      0.42795825836284
  30    -1.3445996723031e-05
  31    -8.723757697831e-11
  32       0.1191016700975
  33    -2.2522402900279e-06
  34    -2.8614561394857e-11
  35    0.0026242688447805
  36    4.2453263149419e-07
  37    -0.024082141158591
  38    -2.1513895273654e-16
  39    1.6349846122459e-06
  40    -0.014756390591663
  41    -5.6797425638408e-12
  42     0.040143264608633
  43    -8.4689054932731e-16
  44    -2.125315086657e-06
  45     0.025904181445013
  46    -1.1956744091762e-13
  47     -0.15989040601342
  48     -0.10844904895981
  49    -0.0051539580726445
  50    -2.3195701734154e-12
  51    -0.0038532027686982
  52     0.012382551369492
  53    1.8810793992102e-12
  54     0.034235151772797
  55    0.0052443613181274
  56     -0.15990983310432
  57     -0.10846942864737
  58    -0.0051533882349328
  59    -4.638312299911e-12
  60    0.0038524343119256
  61     0.012383052260842
  62    -2.2567895637816e-12
  63    -0.034237059022952
  64    0.0052484653482499
  65     -0.15990651632323
  66     -0.10846804515366
  67    -0.0051523420721948
  68    -2.3198669525326e-12
  69    -0.0038525033506469
  70    -0.012382960644711
  71    1.8829071051391e-12
  72     0.034237198899216
  73    -0.0052480809204963
  74     -0.15988767017917
  75     -0.10844817946018
  76    -0.0051530416488797
  77    -4.6384273692964e-12
  78    0.0038533215741763
  79     -0.01238240319323
  80    -2.2570266355473e-12
  81    -0.034235247692473
  82    -0.0052443198437564
 Sym= A
 Ene=               1
 Spin= Alpha
 Occup=    1.99638
   1    -2.9121373187639e-07
   2    4.7487980420772e-05
   3    0.00025817460862915
   4    0.00039863297457797
   5    1.0980282775724e-11
   6    2.1690888507936e-05
   7      0.11633368485216
   8    1.0732571760622e-11
   9    0.00015610083433831
  10      0.20350943626795
  11    7.814754880106e-12
  12    0.00022293025017144
  13      0.38633470564812
  14    6.9087008901067e-06
  15    3.0130132814128e-16
  16    -0.0098801491324551
  17    3.3424713419451e-06
  18    2.6525130330563e-13
  19    2.548821862111e-05
  20    3.2998525030305e-15
  21    -0.0072541930694661
  22    1.5770114589098e-05
  23    2.9849223842353e-13
  24    -1.2905177041707e-06
  25    -4.9796489692879e-05
  26    -0.00012658238899961
  27    -0.00035379255789712
  28    -3.9379752679318e-12
  29    2.2696156638139e-05
  30      0.11633260064788
  31    -6.2331274359964e-12
  32    0.00012309624094883
  33      0.20344735400962
  34    -7.652580830264e-12
  35    0.00020875960241551
  36       0.3863912220503
  37    -6.3464277109522e-06
  38    -7.2282440804183e-16
  39    0.0098880671607879
  40    -4.0123474060396e-06
  41    8.4472018922806e-13
  42    -8.6468234751011e-07
  43    -2.5459539180817e-15
  44    0.0072560573394184
  45    4.2571607631581e-07
  46    3.9300463778731e-13
  47    0.0007793514724949
  48     -0.22529728708725
  49      -1.5023791505571
  50    4.767941730421e-13
  51    -0.0047025659850901
  52    -0.0058447482465671
  53    6.1455878103712e-13
  54     0.042073996091851
  55    0.0099916431261685
  56    0.00078919075213848
  57      -0.2248563219202
  58      -1.5010026320546
  59    -2.1180653546509e-13
  60    0.0047004623339589
  61    -0.0058408504977102
  62    -6.0846378968032e-13
  63    -0.042043137247193
  64    0.0098781942557174
  65    -0.00078460610535849
  66      0.22486990822182
  67       1.5009333204026
  68    4.7668233635697e-13
  69    0.0047002131818284
  70    -0.0058409989687378
  71    6.2018083847149e-13
  72     -0.04205239423959
  73    0.0098979579399579
  74    -0.00078386910058966
  75      0.22513252466875
  76       1.5024296198086
  77    -2.1155340637596e-13
  78    -0.004703947289655
  79    -0.0058475024991894
  80    -6.0736758635289e-13
  81     0.042021707051214
  82    0.0099407158679851
 Sym= A
 Ene=               2
 Spin= Alpha
 Occup=    0.00000
   1    -3.0570948412202e-07
   2    4.8825009265404e-05
   3    0.00026491345854551
   4    0.00041425827412598
   5    -2.465157900146e-09
   6    2.3009019682696e-05
   7      0.11632700732267
   8    -1.5527309715323e-09
   9    0.00015837326589768
  10      0.20350746908759
  11    -3.2776918586846e-11
  12    0.00022816024130026
  13      0.38633662458029
  14    6.8428726100537e-06
  15    3.4032747469325e-16
  16    -0.0098809945016923
  17    3.2499691597114e-06
  18    2.102302721775e-10
  19    2.5640499734524e-05
  20    4.330957450981e-15
  21    -0.0072521912529324
  22    1.5492568197829e-05
  23    3.6136644175178e-11
  24    -1.3049848916305e-06
  25    -4.8459382176044e-05
  26    -0.0001198441682997
  27    -0.00033816716056705
  28    -2.5555657817024e-09
  29    2.1378031772817e-05
  30      0.11633927825114
  31    -1.6553900737083e-09
  32    0.00012082323330412
  33      0.20344932130861
  34    -1.2500514179451e-10
  35    0.00020352961763351
  36       0.3863893029092
  37    -6.412280924684e-06
  38    -1.4471334106737e-15
  39     0.009887221743867
  40    -4.1048337535522e-06
  41    -2.0355017062576e-10
  42    -7.123008857092e-07
  43    -3.6456317691499e-15
  44    0.0072580591056732
  45    1.4822384935354e-07
  46    -3.2090539148967e-11
  47    0.00077406628236342
  48     -0.22530750883523
  49      -1.5023916798963
  50    -9.3292736051571e-11
  51    -0.0047023376870148
  52    -0.0058447361094119
  53    -1.4417155014024e-12
  54     0.042074783892947
  55    0.0099932734105683
  56    0.00079478246551952
  57     -0.22485386983955
  58      -1.5010125329929
  59    -9.7440733683154e-11
  60    0.0047007197952572
  61    -0.0058411776519214
  62    -8.8403145255936e-12
  63    -0.042043195767048
  64    0.0098772544065041
  65    -0.00077901447351361
  66      0.22487236061077
  67       1.5009234184114
  68    -9.3292961975244e-11
  69    0.0046999557179798
  70    -0.0058406717913236
  71    -1.4370255737454e-12
  72    -0.042052335728086
  73    0.0098988978706714
  74    -0.00078915431472871
  75         0.22512230288
  76       1.5024170892354
  77    -9.7440107552559e-11
  78    -0.0047041755733852
  79    -0.0058475146228501
  80    -8.8373914713723e-12
  81     0.042020919243215
  82    0.0099390856131832
 Sym= A
 Ene=               3
 Spin= Alpha
 Occup=    0.00000
   1    -0.00048724058867495
   2    -0.048641446703113
   3     -0.10541263124647
   4    0.0020400756836503
   5    -2.0377277592116e-10
   6      0.42966594667306
   7    0.00023109744911167
   8    -1.3643803662439e-10
   9      0.12227183059584
  10    6.9797651785368e-05
  11    -1.8781397394726e-11
  12     0.010022990979301
  13    -6.7346853157791e-05
  14     0.023980178776737
  15    7.2632060487518e-16
  16    2.8892032620328e-05
  17     0.014619945379333
  18    1.4832362294883e-11
  19    -0.039913338209224
  20    -6.8143438073953e-16
  21    -7.0294119160397e-05
  22    -0.026287666086248
  23    2.0405009555459e-12
  24    -0.00048718165420012
  25    -0.048641160196618
  26     -0.10541651660314
  27    0.0020386474446739
  28    -1.7867903616058e-10
  29     -0.42966667591195
  30    -0.00022686748937126
  31    -1.0793890668749e-10
  32     -0.12227412439743
  33    -6.8392713209084e-05
  34    6.7664341760182e-12
  35     -0.01002310960222
  36    6.7269686372627e-05
  37     0.023980151497264
  38    1.1179326809455e-16
  39    2.876079388338e-05
  40     0.014620132708643
  41    -1.6686989815389e-11
  42    -0.039912962793414
  43    6.5251471149893e-16
  44    -6.9821473049696e-05
  45    -0.026287305094434
  46    -3.15699639741e-12
  47      0.16024433402465
  48      0.10314026850875
  49    -0.010671272671792
  50    -7.8397872093487e-12
  51    0.0038224198005282
  52    -0.012606996631083
  53    -1.4168053167474e-12
  54    -0.033637017791209
  55    -0.0048001798239036
  56       0.1598724525002
  57      0.10270519079784
  58    -0.010763107773862
  59    -6.689262970936e-12
  60    -0.0038391304445957
  61    -0.012595279367336
  62    6.3557743899614e-13
  63     0.033612640020607
  64    -0.0047118406445141
  65      0.15986916609467
  66      0.10270472803524
  67    -0.010763879566171
  68    -7.8395126861836e-12
  69    0.0038391950450701
  70     0.012595203114204
  71    -1.4192385978056e-12
  72    -0.033612882225095
  73    0.0047116438498586
  74      0.16024166637251
  75      0.10313975345876
  76    -0.010672155432518
  77    -6.6890207492484e-12
  78    -0.0038225270902445
  79     0.012606854543759
  80    6.3568052550604e-13
  81     0.033637129382662
  82    0.0048002615400839
 Sym= A
 Ene=               4
 Spin= Alpha
 Occup=    0.00000
   1    -5.0711483644952e-12
   2    3.9846775511146e-10
   3    1.9699405362594e-09
   4    4.3293268660977e-09
   5      0.38340289644538
   6    -1.4942285209028e-10
   7    -8.0624133816719e-06
   8      0.23373868014805
   9    4.3427848751903e-10
  10    -2.3743631195946e-06
  11    -0.010291296904144
  12    1.4179436001544e-09
  13    2.3181962369752e-06
  14    -4.4222927107361e-11
  15    -2.5863280861386e-08
  16    -1.0208555845413e-06
  17    -4.9311195292584e-11
  18    -0.035138099006139
  19    1.021492325382e-10
  20    -1.8085752727714e-07
  21    2.4169822890386e-06
  22    -4.5808616765194e-11
  23    -0.0065252745678811
  24    1.9882447285893e-12
  25    4.2977951738193e-10
  26    1.8635224845666e-09
  27    4.2731914950681e-09
  28      0.42873172340101
  29    1.3088041733166e-10
  30    8.0639144802714e-06
  31      0.28519562753365
  32    -4.9068407097558e-10
  33    2.3766290605731e-06
  34     0.035804036816797
  35    -1.4325234168381e-09
  36    -2.3138587587295e-06
  37    -4.1973961999695e-11
  38    1.0229921440397e-07
  39    -1.0207559286295e-06
  40    -4.0686203413923e-11
  41     0.031793414003505
  42    7.6743082402387e-11
  43    1.7031842232576e-07
  44    2.417099673198e-06
  45    -6.0814275763407e-11
  46    0.0045107148661786
  47    -6.5669515246392e-06
  48    -7.6539099739131e-06
  49    -1.5970377237298e-06
  50     0.014387464692771
  51    2.9324112380766e-07
  52    2.0479459996876e-07
  53    -0.001022911645166
  54    4.4070806900926e-07
  55    1.5518235459973e-06
  56    6.5667980633493e-06
  57    7.6491974534744e-06
  58    1.5739983454411e-06
  59     0.016464505331325
  60    2.9331116685821e-07
  61    -2.049060525539e-07
  62    0.0026847334925275
  63     4.39931743287e-07
  64    -1.551570483504e-06
  65    6.5666682003367e-06
  66    7.6515453063927e-06
  67    1.5908885474599e-06
  68     0.014387481833909
  69    -2.9325300851173e-07
  70    2.0484918266577e-07
  71    -0.0010227242558905
  72    -4.4037071253719e-07
  73    1.5516314312833e-06
  74    -6.5670452582798e-06
  75    -7.6514982752499e-06
  76    -1.5801430745936e-06
  77     0.016464440787727
  78    -2.9329130012587e-07
  79    -2.0485523363484e-07
  80     0.002684466734295
  81    -4.4021502887287e-07
  82    -1.5517693234298e-06
 Sym= A
 Ene=               5
 Spin= Alpha
 Occup=    0.00000
   1    4.1240446477816e-08
   2    -3.9357654998304e-06
   3    -1.9640265768592e-05
   4    -4.5193262099817e-05
   5       0.4236705418742
   6    -3.2090131133473e-06
   7    4.8952035840104e-08
   8      0.46953252233004
   9    -6.4013288653831e-06
  10    1.3864044060141e-08
  11      0.40816668583779
  12    -1.5113699495266e-05
  13    -1.7120190032153e-08
  14    2.2410651396305e-07
  15    4.7387815162647e-07
  16    6.1705996131125e-09
  17    2.8808838675882e-07
  18     0.027666906076854
  19    -4.9652184885397e-07
  20    3.3733401409379e-07
  21    -1.5080442470741e-08
  22    7.6586694063862e-07
  23     0.017494531792511
  24    4.1174763908524e-08
  25    -3.9359164271433e-06
  26    -1.9638699260033e-05
  27    -4.5193671149469e-05
  28     -0.37764669619387
  29    3.2089487893844e-06
  30    -4.8969228910458e-08
  31     -0.44012412656321
  32    6.4028540018331e-06
  33    -1.4732003357971e-08
  34     -0.40672138223357
  35    1.5113639556066e-05
  36    1.6808028248517e-08
  37    2.2418418602559e-07
  38    3.6232575419587e-07
  39    6.2579117043672e-09
  40    2.8806355326207e-07
  41     0.031460144416334
  42    -4.968721032228e-07
  43    1.8689866962809e-07
  44    -1.4865620826899e-08
  45    7.6567502893821e-07
  46     0.018120146174097
  47    -1.7825339511514e-07
  48    1.1429115096743e-05
  49    3.2439430690197e-05
  50     0.019232296148601
  51    4.5781409767626e-08
  52    4.3667228811827e-07
  53     0.032817093863992
  54    -1.273930454837e-06
  55    -1.0147827643164e-06
  56    -2.5827869502766e-07
  57    1.1334878665375e-05
  58    3.2413542418428e-05
  59    -0.017484033920802
  60    -4.9348683912138e-08
  61    4.3914525007085e-07
  62    -0.032722477026934
  63    1.2686612606608e-06
  64    -9.958328864791e-07
  65    -2.5833489437624e-07
  66    1.1333030164514e-05
  67    3.2413121731316e-05
  68     0.019232328307216
  69    4.9357885732645e-08
  70    -4.3917783654176e-07
  71     0.032816209639196
  72    -1.2684585525743e-06
  73    9.9545364230804e-07
  74    -1.7838887228905e-07
  75    1.1428419558236e-05
  76     3.24395026427e-05
  77    -0.017483933227825
  78    -4.5805636717456e-08
  79    -4.366857144253e-07
  80    -0.032723180430617
  81    1.2739010817859e-06
  82    1.0145358683255e-06
 Sym= A
 Ene=               6
 Spin= Alpha
 Occup=    0.00000
   1    4.6765663096735e-10
   2    -4.3221534544953e-08
   3    -2.1769274577476e-07
   4    -5.0447096753908e-07
   5      0.42363113761704
   6    -4.2033545952679e-08
   7    1.4274866396488e-06
   8      0.46950850121986
   9    -7.3210819330322e-08
  10    4.2061199240156e-07
  11      0.40816774630214
  12    -1.6883867576315e-07
  13    -4.0991919993369e-07
  14    2.1541175612539e-09
  15    4.7388081305163e-07
  16    1.8071383961878e-07
  17    3.0052288120766e-09
  18     0.027670517837154
  19    -4.9669248662496e-09
  20    3.3735260529221e-07
  21    -4.2790514639732e-07
  22    8.9288203269568e-09
  23     0.017495202591469
  24    4.6568290254564e-10
  25    -4.3228883043585e-08
  26    -2.1765736614113e-07
  27    -5.0446687399546e-07
  28     -0.37769076475699
  29    4.2036186602851e-08
  30    -1.4274411824223e-06
  31     -0.44015344255889
  32    7.3237774714317e-08
  33    -4.2047803335597e-07
  34     -0.40672506494836
  35    1.6884101845091e-07
  36    4.1018231743805e-07
  37    2.1545681159075e-09
  38    3.6231524203676e-07
  39    1.8072364858411e-07
  40    3.0034181260989e-09
  41     0.031456876821884
  42    -4.9662958019089e-09
  43    1.8688116513256e-07
  44    -4.2790410115814e-07
  45    8.9293848915053e-09
  46     0.018119682671993
  47    1.1578063460367e-06
  48    1.4800606843703e-06
  49    6.4230524074711e-07
  50     0.019230817498055
  51    -5.1446351693303e-08
  52    -3.1198491213292e-08
  53     0.032817199218397
  54    -9.1639897232157e-08
  55    -2.8584902304303e-07
  56    -1.1673328362489e-06
  57    -1.2291423936974e-06
  58    8.0848098619948e-08
  59     -0.01748572629743
  60    -5.2394119395988e-08
  61    4.1332786992701e-08
  62    -0.032722753186709
  63    -6.4263503649272e-08
  64    2.6356205206638e-07
  65    -1.1673125293998e-06
  66    -1.228976433681e-06
  67    8.1872127507031e-08
  68     0.019230849654908
  69    5.2396512606074e-08
  70    -4.1338720410891e-08
  71     0.032816314974334
  72    6.4230870329341e-08
  73    -2.6355055581323e-07
  74    1.1578193671371e-06
  75    1.4802288259685e-06
  76    6.4333770917076e-07
  77    -0.017485625597819
  78    5.1442374867259e-08
  79    3.1193427721527e-08
  80    -0.032723456562978
  81    9.1664838885558e-08
  82    2.8586333634805e-07
 Sym= A
 Ene=               7
 Spin= Alpha
 Occup=    0.00000
   1    1.2514458467224e-08
   2    -1.1941924211484e-06
   3    -5.9594288184016e-06
   4    -1.3713242504668e-05
   5     -0.38335935297809
   6    -9.7423535861687e-07
   7    3.2718553714905e-07
   8     -0.23369042209039
   9    -1.9425325073556e-06
  10    9.6227099250776e-08
  11     0.010333249014584
  12    -4.5860440082171e-06
  13    -9.4902647195405e-08
  14    6.7973477948538e-08
  15    2.5911986991176e-08
  16    4.1413838154692e-08
  17    8.7399240995131e-08
  18     0.035140942849356
  19    -1.5061570128451e-07
  20    1.8089220002083e-07
  21    -9.8201581202052e-08
  22    2.3242227991741e-07
  23    0.0065270727208199
  24    1.249424474519e-08
  25    -1.194239449918e-06
  26    -5.9589490550994e-06
  27    -1.371336476619e-05
  28     -0.42877054090678
  29    9.7421653811403e-07
  30    -3.271949075525e-07
  31     -0.28524086578829
  32     1.94299801281e-06
  33    -9.6483842597214e-08
  34    -0.035845840516192
  35    4.5860264923988e-06
  36    9.4819170521183e-08
  37    6.7996957532819e-08
  38    -1.0226197451748e-07
  39    4.1441052825656e-08
  40    8.7391364374862e-08
  41    -0.031790180651347
  42    -1.5072109722335e-07
  43    -1.7029921350055e-07
  44    -9.8137579662812e-08
  45    2.323645496062e-07
  46    -0.0045088524719676
  47    2.0009389041504e-07
  48    3.7642600762708e-06
  49    9.9046818378903e-06
  50       -0.014385488044
  51    2.5268038951304e-09
  52    1.2458137601412e-07
  53    0.0010262846465174
  54    -4.0357141009797e-07
  55    -3.6802051748029e-07
  56    -3.3293607579254e-07
  57    3.1428862194445e-06
  58    9.7739938547686e-06
  59     -0.01646630245969
  60    -2.6329868573787e-08
  61    1.4120188024726e-07
  62    -0.0026880967781003
  63    3.6786022787004e-07
  64    -2.4205778355919e-07
  65    -3.329484946821e-07
  66    3.1423384435407e-06
  67    9.773908316896e-06
  68    -0.014385505181833
  69    2.6332587234431e-08
  70    -1.4121227591273e-07
  71    0.0010260971663587
  72    -3.6780117380349e-07
  73    2.4194488377333e-07
  74    2.0005606160498e-07
  75    3.7640603147678e-06
  76    9.9047463120166e-06
  77    -0.016466237905742
  78    -2.5343954786085e-09
  79    -1.2458581385408e-07
  80    -0.0026878300921634
  81    4.0356295090704e-07
  82    3.6794816043564e-07
 Sym= A
 Ene=               8
 Spin= Alpha
 Occup=    0.00000
   1    7.6851479179862e-07
   2    -7.4678046732906e-05
   3    -0.00037636059720754
   4    -0.00087930930377513
   5    -7.7646444857944e-06
   6    -8.9827475163118e-05
   7     -0.32027066105494
   8    -3.7922540532361e-06
   9    -0.00013429956599438
  10    -0.094360491299691
  11    2.0780726848419e-06
  12    -0.00029547448761181
  13     0.091984919935374
  14    2.9379758679617e-06
  15    2.7631809183541e-12
  16    -0.040546356209813
  17    4.4264511207248e-06
  18    1.0079476498547e-06
  19    -6.6367878555286e-06
  20    6.0554216279897e-12
  21     0.096005233629654
  22    1.6556566241178e-05
  23    2.4224655611504e-07
  24    1.0473361617906e-06
  25    -7.3413746207058e-05
  26    -0.00038044548447195
  27    -0.00088137445721127
  28    -1.247689269171e-05
  29    8.9077283450046e-05
  30      0.32027328096364
  31    -9.1415956169034e-06
  32    0.00013204137334499
  33     0.094350768231446
  34    -2.7139511507524e-06
  35    0.00029478650285517
  36    -0.092001962580211
  37    3.0324325757374e-06
  38    -9.6067604981336e-13
  39    -0.040547239138649
  40    4.7700951754165e-06
  41    -6.602436816325e-07
  42    -7.6507627660647e-06
  43    -3.4545617037925e-12
  44     0.096006346199062
  45    1.595750584499e-05
  46    -3.2812103437851e-08
  47     -0.26085054882844
  48     -0.30369851905723
  49    -0.062312356507001
  50    -2.7651703749912e-07
  51     0.011649826050128
  52    0.0081464088493596
  53    1.7200100973068e-07
  54     0.017465941807531
  55     0.061613299037561
  56      0.26082702557714
  57      0.30414665766033
  58     0.063641922727704
  59    -4.9243399328596e-07
  60      0.01164825672944
  61    -0.0081270598961688
  62    -2.134180745825e-07
  63     0.017513405320768
  64    -0.061654675427438
  65      0.26082225027912
  66      0.30412967752943
  67     0.063577308338682
  68    -2.7651732593876e-07
  69    -0.011648249686306
  70    0.0081276623064799
  71    1.7199234953361e-07
  72    -0.017510230975333
  73     0.061652240444816
  74     -0.26085389178299
  75       -0.303713091981
  76    -0.062377486591314
  77    -4.9243191986764e-07
  78    -0.011649515058749
  79    -0.0081459528743348
  80    -2.1341449330066e-07
  81    -0.017466961090844
  82    -0.061616033220418
 Sym= A
 Ene=               9
 Spin= Alpha
 Occup=    0.00000
   1    -0.00079513663637332
   2     0.075885769254223
   3      0.37868230352532
   4      0.87136225853994
   5    1.593712626897e-05
   6     0.061863336029556
   7     0.008987013229995
   8    2.0662992604673e-05
   9      0.12342024298186
  10    0.0026584163571437
  11    2.1313372809588e-05
  12      0.29140404703641
  13    -0.0025225750081762
  14    -0.0043214590318427
  15    2.4974367384525e-11
  16    0.0011382988920176
  17    -0.0055548738257971
  18    1.9852926874627e-06
  19    0.0095741605951438
  20    2.0329672585981e-11
  21    -0.0026861639957217
  22    -0.014765976918291
  23    1.0090188662698e-06
  24    -0.00079387874444614
  25     0.075888640252653
  26      0.37865222021129
  27      0.87137020327069
  28    -2.6299892765874e-05
  29    -0.061862072614348
  30    -0.0089869997016259
  31    -2.7284534560348e-05
  32     -0.12344958521992
  33    -0.0026417933620061
  34    -2.1638939519782e-05
  35     -0.29140287355173
  36    0.0025283382803796
  37    -0.0043229594684878
  38    1.7169369588506e-11
  39    0.0011366230756132
  40    -0.0055544056001468
  41    1.131263587884e-06
  42    0.0095809462639243
  43    7.0090106606653e-12
  44    -0.0026903547970784
  45    -0.014762257003534
  46    8.6821109804836e-07
  47     0.011521528482362
  48     -0.21094066361859
  49      -0.6235046946579
  50     7.70812547976e-07
  51    -0.0012439949443113
  52    -0.0086714364755594
  53    1.7166892557749e-06
  54     0.024020776624584
  55     0.017654809094753
  56    -0.0031117199918095
  57      -0.2279718033045
  58     -0.62691115001281
  59    -1.1644874896199e-06
  60    0.00059034693855738
  61    -0.0082145088096927
  62    -1.7378710843241e-06
  63    -0.025003824305777
  64     0.021111739705374
  65    -0.0031104866467534
  66      -0.2279360913272
  67     -0.62690407942967
  68    7.7081394502589e-07
  69    -0.00059053406513385
  70    0.0082151302312564
  71    1.716640473526e-06
  72     0.024999902516546
  73    -0.021104371763177
  74     0.011524245765216
  75     -0.21092726096251
  76     -0.62350711133226
  77    -1.1644812551678e-06
  78    0.0012444619651577
  79    0.0086716931079177
  80    -1.7379033613922e-06
  81    -0.024020264407525
  82    -0.017649984502464
 Sym= A
 Ene=              10
 Spin= Alpha
 Occup=    0.00000
   1    -0.00080756589442428
   2     0.074656171900331
   3      0.37603291656329
   4       0.8714761706256
   5    2.3549074527956e-07
   6     0.072776656056873
   7    -0.0003236471494056
   8    2.6679811604006e-07
   9      0.12653337603593
  10    -8.7649669801598e-05
  11    2.3842334559091e-07
  12      0.29167927132863
  13    0.00014423972472152
  14    -0.0037129245965228
  15    2.8855325336658e-13
  16    -4.0015716887149e-05
  17    -0.0051840871403197
  18    1.7208882162647e-08
  19    0.0085614856090371
  20    2.118776126513e-13
  21    0.0001043215717658
  22    -0.015434455434514
  23    1.0404212635643e-08
  24    -0.0008062982523369
  25     0.074659088923412
  26      0.37600261942851
  27      0.87148403287534
  28    -2.3334875896224e-07
  29    -0.072775433620764
  30    0.00031980856540919
  31    -2.6542927803142e-07
  32     -0.12656284999402
  33    9.6968323777217e-05
  34    -2.3835636749523e-07
  35     -0.29167812823649
  36    -0.00015237687626212
  37    -0.0037144228995386
  38    2.0710469692054e-13
  39    -4.2063605369155e-05
  40    -0.0051836039882142
  41    1.7385534085494e-08
  42    0.0085682524575289
  43    1.009422724693e-13
  44    9.9923021950678e-05
  45    -0.015430743137544
  46    1.0433434838566e-08
  47    0.0080043431569896
  48     -0.21717253258578
  49     -0.62562476256231
  50    1.0781756901959e-08
  51    -0.00080813533239053
  52    -0.0087553667666164
  53    1.9175480481035e-08
  54     0.023676397762703
  55     0.019326619272697
  56    0.0085337296494062
  57     -0.21653661383797
  58     -0.62537040146429
  59    -1.0700459479497e-08
  60    0.00083164693877055
  61    -0.0087714269157007
  62    -1.9170822637306e-08
  63     -0.02364275216161
  64     0.019200761884216
  65     0.008534768076702
  66     -0.21650920464179
  67     -0.62541729931536
  68    1.0781774740886e-08
  69    -0.00083199529874336
  70    0.0087722666132713
  71    1.9174939878561e-08
  72     0.023640374838647
  73     -0.01919381204926