[Molden Format]
[N_Atoms]
                     6
[Atoms] (AU)
C1          1      6          -3.74112861      1.41379860      0.00000000
C2          2      6          -1.23932586      1.30918336      0.00000000
H3          3      1          -4.89035232     -0.28126684      0.00000000
H4          4      1          -4.74497569      3.19879799      0.00000000
H5          5      1          -0.23547877     -0.47581603      0.00000000
H6          6      1          -0.09010214      3.00424880      0.00000000
[Charge] (Mulliken)
 -0.404712165820020     
 -0.404712165822247     
  0.202349898827660     
  0.202362266997129     
  0.202362266991099     
  0.202349898826296     
[GTO] (AU)
   1
   s   6
  3.047524880E+03  1.834737132E-03
  4.573695180E+02  1.403732281E-02
  1.039486850E+02  6.884262227E-02
  2.921015530E+01  2.321844432E-01
  9.286662960E+00  4.679413484E-01
  3.163926960E+00  3.623119853E-01
   s   3
  7.868272350E+00 -1.193324198E-01
  1.881288540E+00 -1.608541517E-01
  5.442492580E-01  1.143456438E+00
   s   1
  1.687144782E-01  1.000000000E+00
   p   3
  7.868272350E+00  6.899906659E-02
  1.881288540E+00  3.164239610E-01
  5.442492580E-01  7.443082909E-01
   p   1
  1.687144782E-01  1.000000000E+00
   d   1
  8.000000000E-01  1.000000000E+00
 
   2
   s   6
  3.047524880E+03  1.834737132E-03
  4.573695180E+02  1.403732281E-02
  1.039486850E+02  6.884262227E-02
  2.921015530E+01  2.321844432E-01
  9.286662960E+00  4.679413484E-01
  3.163926960E+00  3.623119853E-01
   s   3
  7.868272350E+00 -1.193324198E-01
  1.881288540E+00 -1.608541517E-01
  5.442492580E-01  1.143456438E+00
   s   1
  1.687144782E-01  1.000000000E+00
   p   3
  7.868272350E+00  6.899906659E-02
  1.881288540E+00  3.164239610E-01
  5.442492580E-01  7.443082909E-01
   p   1
  1.687144782E-01  1.000000000E+00
   d   1
  8.000000000E-01  1.000000000E+00
 
   3
   s   3
  1.873113696E+01  3.349460434E-02
  2.825394365E+00  2.347269535E-01
  6.401216923E-01  8.137573261E-01
   s   1
  1.612777588E-01  1.000000000E+00
 
   4
   s   3
  1.873113696E+01  3.349460434E-02
  2.825394365E+00  2.347269535E-01
  6.401216923E-01  8.137573261E-01
   s   1
  1.612777588E-01  1.000000000E+00
 
   5
   s   3
  1.873113696E+01  3.349460434E-02
  2.825394365E+00  2.347269535E-01
  6.401216923E-01  8.137573261E-01
   s   1
  1.612777588E-01  1.000000000E+00
 
   6
   s   3
  1.873113696E+01  3.349460434E-02
  2.825394365E+00  2.347269535E-01
  6.401216923E-01  8.137573261E-01
   s   1
  1.612777588E-01  1.000000000E+00
 
[MO]
Sym=     1a  
Ene=   -11.2440
Spin= Alpha
Occup=    1.00000
   1         0.70374924
   2         0.01939825
   3        -0.00525321
   4         0.00017969
   5        -0.00000752
   6        -0.00000000
   7         0.00046993
   8        -0.00001953
   9         0.00000000
  10        -0.00141296
  11        -0.00165046
  12        -0.00199895
  13        -0.00001152
  14         0.00000000
  15        -0.00000000
  16         0.70374924
  17         0.01939825
  18        -0.00525321
  19        -0.00017969
  20         0.00000752
  21         0.00000000
  22        -0.00046993
  23         0.00001953
  24         0.00000000
  25        -0.00141296
  26        -0.00165046
  27        -0.00199895
  28        -0.00001152
  29         0.00000000
  30        -0.00000000
  31        -0.00011759
  32         0.00141853
  33        -0.00011764
  34         0.00141842
  35        -0.00011764
  36         0.00141842
  37        -0.00011759
  38         0.00141853
Sym=     1a  
Ene=   -11.2440
Spin= Beta
Occup=    1.00000
   1         0.70374924
   2         0.01939825
   3        -0.00525321
   4         0.00017969
   5        -0.00000752
   6        -0.00000000
   7         0.00046993
   8        -0.00001953
   9         0.00000000
  10        -0.00141296
  11        -0.00165046
  12        -0.00199895
  13        -0.00001152
  14         0.00000000
  15        -0.00000000
  16         0.70374924
  17         0.01939825
  18        -0.00525321
  19        -0.00017969
  20         0.00000752
  21         0.00000000
  22        -0.00046993
  23         0.00001953
  24         0.00000000
  25        -0.00141296
  26        -0.00165046
  27        -0.00199895
  28        -0.00001152
  29         0.00000000
  30        -0.00000000
  31        -0.00011759
  32         0.00141853
  33        -0.00011764
  34         0.00141842
  35        -0.00011764
  36         0.00141842
  37        -0.00011759
  38         0.00141853
Sym=     2a  
Ene=   -11.2430
Spin= Alpha
Occup=    1.00000
   1        -0.70421263
   2        -0.01975779
   3         0.01068145
   4        -0.00076932
   5         0.00003218
   6         0.00000000
   7         0.00171720
   8        -0.00007187
   9        -0.00000000
  10         0.00073700
  11         0.00132717
  12         0.00176326
  13         0.00002856
  14        -0.00000000
  15        -0.00000000
  16         0.70421263
  17         0.01975780
  18        -0.01068145
  19        -0.00076932
  20         0.00003218
  21         0.00000000
  22         0.00171720
  23        -0.00007187
  24        -0.00000000
  25        -0.00073700
  26        -0.00132717
  27        -0.00176326
  28        -0.00002856
  29         0.00000000
  30        -0.00000000
  31         0.00004110
  32        -0.00142473
  33         0.00004114
  34        -0.00142469
  35        -0.00004114
  36         0.00142469
  37        -0.00004110
  38         0.00142473
Sym=     2a  
Ene=   -11.2430
Spin= Beta
Occup=    1.00000
   1        -0.70421263
   2        -0.01975779
   3         0.01068145
   4        -0.00076932
   5         0.00003218
   6         0.00000000
   7         0.00171720
   8        -0.00007187
   9        -0.00000000
  10         0.00073700
  11         0.00132717
  12         0.00176326
  13         0.00002856
  14        -0.00000000
  15        -0.00000000
  16         0.70421263
  17         0.01975780
  18        -0.01068145
  19        -0.00076932
  20         0.00003218
  21         0.00000000
  22         0.00171720
  23        -0.00007187
  24        -0.00000000
  25        -0.00073700
  26        -0.00132717
  27        -0.00176326
  28        -0.00002856
  29         0.00000000
  30        -0.00000000
  31         0.00004110
  32        -0.00142473
  33         0.00004114
  34        -0.00142469
  35        -0.00004114
  36         0.00142469
  37        -0.00004110
  38         0.00142473
Sym=     3a  
Ene=    -1.0452
Spin= Alpha
Occup=    1.00000
   1        -0.15731021
   2         0.30564868
   3         0.21675956
   4         0.12554633
   5        -0.00525141
   6         0.00000000
   7         0.00974662
   8        -0.00040584
   9        -0.00000000
  10         0.02015221
  11         0.00553155
  12        -0.01575426
  13        -0.00070777
  14         0.00000000
  15         0.00000000
  16        -0.15731021
  17         0.30564868
  18         0.21675956
  19        -0.12554633
  20         0.00525141
  21         0.00000000
  22        -0.00974662
  23         0.00040584
  24         0.00000000
  25         0.02015221
  26         0.00553155
  27        -0.01575426
  28        -0.00070777
  29         0.00000000
  30         0.00000000
  31         0.07853504
  32         0.01614467
  33         0.07853270
  34         0.01614205
  35         0.07853270
  36         0.01614205
  37         0.07853504
  38         0.01614467
Sym=     3a  
Ene=    -1.0452
Spin= Beta
Occup=    1.00000
   1        -0.15731021
   2         0.30564868
   3         0.21675956
   4         0.12554633
   5        -0.00525141
   6         0.00000000
   7         0.00974662
   8        -0.00040584
   9        -0.00000000
  10         0.02015221
  11         0.00553155
  12        -0.01575426
  13        -0.00070777
  14         0.00000000
  15         0.00000000
  16        -0.15731021
  17         0.30564868
  18         0.21675956
  19        -0.12554633
  20         0.00525141
  21         0.00000000
  22        -0.00974662
  23         0.00040584
  24         0.00000000
  25         0.02015221
  26         0.00553155
  27        -0.01575426
  28        -0.00070777
  29         0.00000000
  30         0.00000000
  31         0.07853504
  32         0.01614467
  33         0.07853270
  34         0.01614205
  35         0.07853270
  36         0.01614205
  37         0.07853504
  38         0.01614467
Sym=     4a  
Ene=    -0.7953
Spin= Alpha
Occup=    1.00000
   1         0.12164837
   2        -0.23199938
   3        -0.28309731
   4         0.16277043
   5        -0.00680501
   6         0.00000000
   7         0.04398670
   8        -0.00183846
   9         0.00000000
  10         0.00250106
  11        -0.02409278
  12         0.00889976
  13        -0.00128491
  14        -0.00000000
  15        -0.00000000
  16        -0.12164837
  17         0.23199938
  18         0.28309731
  19         0.16277043
  20        -0.00680501
  21         0.00000000
  22         0.04398670
  23        -0.00183846
  24        -0.00000000
  25        -0.00250106
  26         0.02409278
  27        -0.00889976
  28         0.00128491
  29         0.00000000
  30        -0.00000000
  31        -0.14362131
  32        -0.06500037
  33        -0.14362647
  34        -0.06500291
  35         0.14362647
  36         0.06500291
  37         0.14362131
  38         0.06500037
Sym=     4a  
Ene=    -0.7953
Spin= Beta
Occup=    1.00000
   1         0.12164837
   2        -0.23199938
   3        -0.28309731
   4         0.16277043
   5        -0.00680501
   6         0.00000000
   7         0.04398670
   8        -0.00183846
   9         0.00000000
  10         0.00250106
  11        -0.02409278
  12         0.00889976
  13        -0.00128491
  14        -0.00000000
  15        -0.00000000
  16        -0.12164837
  17         0.23199938
  18         0.28309731
  19         0.16277043
  20        -0.00680501
  21         0.00000000
  22         0.04398670
  23        -0.00183846
  24        -0.00000000
  25        -0.00250106
  26         0.02409278
  27        -0.00889976
  28         0.00128491
  29         0.00000000
  30        -0.00000000
  31        -0.14362131
  32        -0.06500037
  33        -0.14362647
  34        -0.06500291
  35         0.14362647
  36         0.06500291
  37         0.14362131
  38         0.06500037
Sym=     5a  
Ene=    -0.6508
Spin= Alpha
Occup=    1.00000
   1        -0.00000009
   2         0.00000021
   3        -0.00000165
   4         0.01366784
   5         0.32696975
   6         0.00000000
   7         0.00578592
   8         0.13841859
   9        -0.00000000
  10        -0.00066732
  11         0.00066703
  12         0.00000004
  13        -0.00922265
  14         0.00000000
  15         0.00000000
  16         0.00000009
  17        -0.00000021
  18         0.00000165
  19         0.01366784
  20         0.32696975
  21         0.00000000
  22         0.00578592
  23         0.13841859
  24         0.00000000
  25         0.00066732
  26        -0.00066703
  27        -0.00000004
  28         0.00922265
  29         0.00000000
  30         0.00000000
  31        -0.15359677
  32        -0.09641437
  33         0.15359176
  34         0.09641103
  35        -0.15359176
  36        -0.09641103
  37         0.15359677
  38         0.09641437
Sym=     5a  
Ene=    -0.6508
Spin= Beta
Occup=    1.00000
   1        -0.00000009
   2         0.00000021
   3        -0.00000165
   4         0.01366784
   5         0.32696975
   6         0.00000000
   7         0.00578592
   8         0.13841859
   9        -0.00000000
  10        -0.00066732
  11         0.00066703
  12         0.00000004
  13        -0.00922265
  14         0.00000000
  15         0.00000000
  16         0.00000009
  17        -0.00000021
  18         0.00000165
  19         0.01366784
  20         0.32696975
  21         0.00000000
  22         0.00578592
  23         0.13841859
  24         0.00000000
  25         0.00066732
  26        -0.00066703
  27        -0.00000004
  28         0.00922265
  29         0.00000000
  30         0.00000000
  31        -0.15359677
  32        -0.09641437
  33         0.15359176
  34         0.09641103
  35        -0.15359176
  36        -0.09641103
  37         0.15359677
  38         0.09641437
Sym=     6a  
Ene=    -0.5991
Spin= Alpha
Occup=    1.00000
   1         0.00557472
   2        -0.02168926
   3         0.03204888
   4        -0.40821662
   5         0.01709068
   6        -0.00000000
   7        -0.14501216
   8         0.00607891
   9        -0.00000000
  10        -0.01689196
  11         0.02789979
  12         0.00099226
  13         0.00216292
  14        -0.00000000
  15         0.00000000
  16         0.00557472
  17        -0.02168926
  18         0.03204888
  19         0.40821662
  20        -0.01709068
  21         0.00000000
  22         0.14501216
  23        -0.00607891
  24         0.00000000
  25        -0.01689196
  26         0.02789979
  27         0.00099226
  28         0.00216292
  29        -0.00000000
  30         0.00000000
  31         0.12680995
  32         0.09960285
  33         0.12684527
  34         0.09962177
  35         0.12684527
  36         0.09962177
  37         0.12680995
  38         0.09960285
Sym=     6a  
Ene=    -0.5991
Spin= Beta
Occup=    1.00000
   1         0.00557472
   2        -0.02168926
   3         0.03204888
   4        -0.40821662
   5         0.01709068
   6        -0.00000000
   7        -0.14501216
   8         0.00607891
   9        -0.00000000
  10        -0.01689196
  11         0.02789979
  12         0.00099226
  13         0.00216292
  14        -0.00000000
  15         0.00000000
  16         0.00557472
  17        -0.02168926
  18         0.03204888
  19         0.40821662
  20        -0.01709068
  21         0.00000000
  22         0.14501216
  23        -0.00607891
  24         0.00000000
  25        -0.01689196
  26         0.02789979
  27         0.00099226
  28         0.00216292
  29        -0.00000000
  30         0.00000000
  31         0.12680995
  32         0.09960285
  33         0.12684527
  34         0.09962177
  35         0.12684527
  36         0.09962177
  37         0.12680995
  38         0.09960285
Sym=     7a  
Ene=    -0.5077
Spin= Alpha
Occup=    1.00000
   1         0.00000263
   2        -0.00000758
   3        -0.00000530
   4        -0.01298522
   5        -0.30975038
   6        -0.00000000
   7        -0.00892403
   8        -0.21315038
   9        -0.00000000
  10         0.00246294
  11        -0.00246156
  12        -0.00000014
  13         0.03399320
  14         0.00000000
  15        -0.00000000
  16         0.00000263
  17        -0.00000758
  18        -0.00000530
  19         0.01298522
  20         0.30975038
  21        -0.00000000
  22         0.00892403
  23         0.21315038
  24        -0.00000000
  25         0.00246294
  26        -0.00246156
  27        -0.00000014
  28         0.03399320
  29        -0.00000000
  30         0.00000000
  31         0.18655135
  32         0.14347876
  33        -0.18652679
  34        -0.14345248
  35        -0.18652679
  36        -0.14345248
  37         0.18655135
  38         0.14347876
Sym=     7a  
Ene=    -0.5077
Spin= Beta
Occup=    1.00000
   1         0.00000263
   2        -0.00000758
   3        -0.00000530
   4        -0.01298522
   5        -0.30975038
   6        -0.00000000
   7        -0.00892403
   8        -0.21315038
   9        -0.00000000
  10         0.00246294
  11        -0.00246156
  12        -0.00000014
  13         0.03399320
  14         0.00000000
  15        -0.00000000
  16         0.00000263
  17        -0.00000758
  18        -0.00000530
  19         0.01298522
  20         0.30975038
  21        -0.00000000
  22         0.00892403
  23         0.21315038
  24        -0.00000000
  25         0.00246294
  26        -0.00246156
  27        -0.00000014
  28         0.03399320
  29        -0.00000000
  30         0.00000000
  31         0.18655135
  32         0.14347876
  33        -0.18652679
  34        -0.14345248
  35        -0.18652679
  36        -0.14345248
  37         0.18655135
  38         0.14347876
Sym=     8a  
Ene=    -0.2023
Spin= Alpha
Occup=    0.96275
   1        -0.00000000
   2         0.00000000
   3         0.00000000
   4        -0.00000000
   5        -0.00000000
   6         0.35974448
   7         0.00000000
   8        -0.00000000
   9         0.31622754
  10        -0.00000000
  11        -0.00000000
  12         0.00000000
  13         0.00000000
  14         0.03304622
  15        -0.00138192
  16         0.00000000
  17        -0.00000000
  18        -0.00000000
  19         0.00000000
  20        -0.00000000
  21         0.35974448
  22         0.00000000
  23         0.00000000
  24         0.31622754
  25         0.00000000
  26         0.00000000
  27         0.00000000
  28         0.00000000
  29        -0.03304622
  30         0.00138192
  31         0.00000000
  32         0.00000000
  33         0.00000000
  34         0.00000000
  35         0.00000000
  36        -0.00000000
  37        -0.00000000
  38         0.00000000
Sym=     8a  
Ene=    -0.2023
Spin= Beta
Occup=    0.96275
   1        -0.00000000
   2         0.00000000
   3         0.00000000
   4        -0.00000000
   5        -0.00000000
   6         0.35974448
   7         0.00000000
   8        -0.00000000
   9         0.31622754
  10        -0.00000000
  11        -0.00000000
  12         0.00000000
  13         0.00000000
  14         0.03304622
  15        -0.00138192
  16         0.00000000
  17        -0.00000000
  18        -0.00000000
  19         0.00000000
  20        -0.00000000
  21         0.35974448
  22         0.00000000
  23         0.00000000
  24         0.31622754
  25         0.00000000
  26         0.00000000
  27         0.00000000
  28         0.00000000
  29        -0.03304622
  30         0.00138192
  31         0.00000000
  32         0.00000000
  33         0.00000000
  34         0.00000000
  35         0.00000000
  36        -0.00000000
  37        -0.00000000
  38         0.00000000
Sym=     9a  
Ene=     0.0112
Spin= Alpha
Occup=    0.03725
   1        -0.00000000
   2        -0.00000000
   3         0.00000000
   4         0.00000000
   5        -0.00000000
   6        -0.38047362
   7         0.00000000
   8        -0.00000000
   9        -0.69323037
  10         0.00000000
  11        -0.00000000
  12        -0.00000000
  13         0.00000000
  14         0.01674181
  15        -0.00070009
  16        -0.00000000
  17         0.00000000
  18        -0.00000000
  19        -0.00000000
  20        -0.00000000
  21         0.38047362
  22         0.00000000
  23         0.00000000
  24         0.69323037
  25         0.00000000
  26        -0.00000000
  27        -0.00000000
  28         0.00000000
  29         0.01674181
  30        -0.00070009
  31        -0.00000000
  32        -0.00000000
  33         0.00000000
  34        -0.00000000
  35         0.00000000
  36        -0.00000000
  37        -0.00000000
  38        -0.00000000
Sym=     9a  
Ene=     0.0112
Spin= Beta
Occup=    0.03725
   1        -0.00000000
   2        -0.00000000
   3         0.00000000
   4         0.00000000
   5        -0.00000000
   6        -0.38047362
   7         0.00000000
   8        -0.00000000
   9        -0.69323037
  10         0.00000000
  11        -0.00000000
  12        -0.00000000
  13         0.00000000
  14         0.01674181
  15        -0.00070009
  16        -0.00000000
  17         0.00000000
  18        -0.00000000
  19        -0.00000000
  20        -0.00000000
  21         0.38047362
  22         0.00000000
  23         0.00000000
  24         0.69323037
  25         0.00000000
  26        -0.00000000
  27        -0.00000000
  28         0.00000000
  29         0.01674181
  30        -0.00070009
  31        -0.00000000
  32        -0.00000000
  33         0.00000000
  34        -0.00000000
  35         0.00000000
  36        -0.00000000
  37        -0.00000000
  38        -0.00000000
Sym=    10a  
Ene=     0.2629
Spin= Alpha
Occup=    0.00000
   1         0.07790079
   2        -0.08718014
   3        -1.47574496
   4         0.14189524
   5        -0.00592519
   6        -0.00000000
   7         0.64973175
   8        -0.02711206
   9        -0.00000000
  10        -0.00273159
  11         0.01045097
  12         0.00320403
  13         0.00063776
  14         0.00000000
  15         0.00000000
  16         0.07790079
  17        -0.08718014
  18        -1.47574496
  19        -0.14189524
  20         0.00592519
  21         0.00000000
  22        -0.64973175
  23         0.02711206
  24         0.00000000
  25        -0.00273159
  26         0.01045097
  27         0.00320403
  28         0.00063776
  29         0.00000000
  30         0.00000000
  31         0.01298506
  32         1.03002106
  33         0.01298113
  34         1.02998364
  35         0.01298113
  36         1.02998364
  37         0.01298506
  38         1.03002106
Sym=    10a  
Ene=     0.2629
Spin= Beta
Occup=    0.00000
   1         0.07790079
   2        -0.08718014
   3        -1.47574496
   4         0.14189524
   5        -0.00592519
   6        -0.00000000
   7         0.64973175
   8        -0.02711206
   9        -0.00000000
  10        -0.00273159
  11         0.01045097
  12         0.00320403
  13         0.00063776
  14         0.00000000
  15         0.00000000
  16         0.07790079
  17        -0.08718014
  18        -1.47574496
  19        -0.14189524
  20         0.00592519
  21         0.00000000
  22        -0.64973175
  23         0.02711206
  24         0.00000000
  25        -0.00273159
  26         0.01045097
  27         0.00320403
  28         0.00063776
  29         0.00000000
  30         0.00000000
  31         0.01298506
  32         1.03002106
  33         0.01298113
  34         1.02998364
  35         0.01298113
  36         1.02998364
  37         0.01298506
  38         1.03002106
Sym=    11a  
Ene=     0.2829
Spin= Alpha
Occup=    0.00000
   1        -0.00001525
   2         0.00002090
   3         0.00018802
   4         0.01054702
   5         0.25240505
   6        -0.00000000
   7         0.03278764
   8         0.78571236
   9        -0.00000000
  10         0.00203559
  11        -0.00203764
  12        -0.00000007
  13         0.02809663
  14         0.00000000
  15         0.00000000
  16         0.00001525
  17        -0.00002090
  18        -0.00018802
  19         0.01054702
  20         0.25240505
  21         0.00000000
  22         0.03278764
  23         0.78571236
  24        -0.00000000
  25        -0.00203559
  26         0.00203764
  27         0.00000007
  28        -0.02809663
  29        -0.00000000
  30        -0.00000000
  31         0.04885941
  32         1.07683257
  33        -0.04886654
  34        -1.07706984
  35         0.04886654
  36         1.07706984
  37        -0.04885941
  38        -1.07683257
Sym=    11a  
Ene=     0.2829
Spin= Beta
Occup=    0.00000
   1        -0.00001525
   2         0.00002090
   3         0.00018802
   4         0.01054702
   5         0.25240505
   6        -0.00000000
   7         0.03278764
   8         0.78571236
   9        -0.00000000
  10         0.00203559
  11        -0.00203764
  12        -0.00000007
  13         0.02809663
  14         0.00000000
  15         0.00000000
  16         0.00001525
  17        -0.00002090
  18        -0.00018802
  19         0.01054702
  20         0.25240505
  21         0.00000000
  22         0.03278764
  23         0.78571236
  24        -0.00000000
  25        -0.00203559
  26         0.00203764
  27         0.00000007
  28        -0.02809663
  29        -0.00000000
  30        -0.00000000
  31         0.04885941
  32         1.07683257
  33        -0.04886654
  34        -1.07706984
  35         0.04886654
  36         1.07706984
  37        -0.04885941
  38        -1.07683257
Sym=    12a  
Ene=     0.3055
Spin= Alpha
Occup=    0.00000
   1         0.10924944
   2        -0.10572051
   3        -1.94751656
   4         0.08861926
   5        -0.00366859
   6        -0.00000000
   7         0.13806049
   8        -0.00565227
   9        -0.00000000
  10         0.00763724
  11        -0.00081809
  12         0.00818312
  13        -0.00040586
  14         0.00000000
  15         0.00000000
  16        -0.10924944
  17         0.10572051
  18         1.94751656
  19         0.08861926
  20        -0.00366859
  21        -0.00000000
  22         0.13806049
  23        -0.00565227
  24         0.00000000
  25        -0.00763724
  26         0.00081809
  27        -0.00818312
  28         0.00040586
  29        -0.00000000
  30        -0.00000000
  31         0.02112722
  32         1.06536923
  33         0.02112100
  34         1.06509684
  35        -0.02112100
  36        -1.06509684
  37        -0.02112722
  38        -1.06536923
Sym=    12a  
Ene=     0.3055
Spin= Beta
Occup=    0.00000
   1         0.10924944
   2        -0.10572051
   3        -1.94751656
   4         0.08861926
   5        -0.00366859
   6        -0.00000000
   7         0.13806049
   8        -0.00565227
   9        -0.00000000
  10         0.00763724
  11        -0.00081809
  12         0.00818312
  13        -0.00040586
  14         0.00000000
  15         0.00000000
  16        -0.10924944
  17         0.10572051
  18         1.94751656
  19         0.08861926
  20        -0.00366859
  21        -0.00000000
  22         0.13806049
  23        -0.00565227
  24         0.00000000
  25        -0.00763724
  26         0.00081809
  27        -0.00818312
  28         0.00040586
  29        -0.00000000
  30        -0.00000000
  31         0.02112722
  32         1.06536923
  33         0.02112100
  34         1.06509684
  35        -0.02112100
  36        -1.06509684
  37        -0.02112722
  38        -1.06536923
Sym=    13a  
Ene=     0.3878
Spin= Alpha
Occup=    0.00000
   1         0.00000164
   2         0.00000329
   3        -0.00008315
   4        -0.01053671
   5        -0.25253390
   6         0.00000000
   7        -0.07798891
   8        -1.86654223
   9         0.00000000
  10         0.00105213
  11        -0.00105097
  12        -0.00000019
  13         0.01447194
  14         0.00000000
  15        -0.00000000
  16         0.00000164
  17         0.00000329
  18        -0.00008315
  19         0.01053671
  20         0.25253390
  21         0.00000000
  22         0.07798891
  23         1.86654223
  24        -0.00000000
  25         0.00105213
  26        -0.00105097
  27        -0.00000019
  28         0.01447194
  29        -0.00000000
  30         0.00000000
  31         0.03603876
  32        -1.61107559
  33        -0.03604375
  34         1.61117838
  35        -0.03604375
  36         1.61117838
  37         0.03603876
  38        -1.61107559
Sym=    13a  
Ene=     0.3878
Spin= Beta
Occup=    0.00000
   1         0.00000164
   2         0.00000329
   3        -0.00008315
   4        -0.01053671
   5        -0.25253390
   6         0.00000000
   7        -0.07798891
   8        -1.86654223
   9         0.00000000
  10         0.00105213
  11        -0.00105097
  12        -0.00000019
  13         0.01447194
  14         0.00000000
  15        -0.00000000
  16         0.00000164
  17         0.00000329
  18        -0.00008315
  19         0.01053671
  20         0.25253390
  21         0.00000000
  22         0.07798891
  23         1.86654223
  24        -0.00000000
  25         0.00105213
  26        -0.00105097
  27        -0.00000019
  28         0.01447194
  29        -0.00000000
  30         0.00000000
  31         0.03603876
  32        -1.61107559
  33        -0.03604375
  34         1.61117838
  35        -0.03604375
  36         1.61117838
  37         0.03603876
  38        -1.61107559
Sym=    14a  
Ene=     0.4933
Spin= Alpha
Occup=    0.00000
   1        -0.06644865
   2         0.00243746
   3         3.11584195
   4         0.15200348
   5        -0.00635863
   6        -0.00000000
   7         2.98629113
   8        -0.12488301
   9         0.00000000
  10         0.00031795
  11         0.02343278
  12        -0.00954957
  13         0.00111852
  14         0.00000000
  15        -0.00000000
  16         0.06644865
  17        -0.00243746
  18        -3.11584195
  19         0.15200348
  20        -0.00635863
  21        -0.00000000
  22         2.98629113
  23        -0.12488301
  24        -0.00000000
  25        -0.00031795
  26        -0.02343278
  27         0.00954957
  28        -0.00111852
  29        -0.00000000
  30        -0.00000000
  31         0.07122238
  32         0.58838361
  33         0.07119884
  34         0.58850586
  35        -0.07119884
  36        -0.58850586
  37        -0.07122238
  38        -0.58838361
Sym=    14a  
Ene=     0.4933
Spin= Beta
Occup=    0.00000
   1        -0.06644865
   2         0.00243746
   3         3.11584195
   4         0.15200348
   5        -0.00635863
   6        -0.00000000
   7         2.98629113
   8        -0.12488301
   9         0.00000000
  10         0.00031795
  11         0.02343278
  12        -0.00954957
  13         0.00111852
  14         0.00000000
  15        -0.00000000
  16         0.06644865
  17        -0.00243746
  18        -3.11584195
  19         0.15200348
  20        -0.00635863
  21        -0.00000000
  22         2.98629113
  23        -0.12488301
  24        -0.00000000
  25        -0.00031795
  26        -0.02343278
  27         0.00954957
  28        -0.00111852
  29        -0.00000000
  30        -0.00000000
  31         0.07122238
  32         0.58838361
  33         0.07119884
  34         0.58850586
  35        -0.07119884
  36        -0.58850586
  37        -0.07122238
  38        -0.58838361
Sym=    15a  
Ene=     0.6531
Spin= Alpha
Occup=    0.00000
   1        -0.02536264
   2        -0.25442105
   3        -0.09747800
   4        -0.54075121
   5         0.02256731
   6         0.00000000
   7         1.00727307
   8        -0.04209644