[Molden Format]
[N_Atoms]
                     6
[Atoms] (AU)
C1          1      6          -3.74112861      1.41379860      0.00000000
C2          2      6          -1.23932586      1.30918336      0.00000000
H3          3      1          -4.89035232     -0.28126684      0.00000000
H4          4      1          -4.74497569      3.19879799      0.00000000
H5          5      1          -0.23547877     -0.47581603      0.00000000
H6          6      1          -0.09010214      3.00424880      0.00000000
[Charge] (Mulliken)
 -0.353868063361631     
 -0.353868063377687     
  0.176929052227713     
  0.176939011140233     
  0.176939011141569     
  0.176929052229724     
[GTO] (AU)
   1
   s   6
  3.047524880E+03  1.834737132E-03
  4.573695180E+02  1.403732281E-02
  1.039486850E+02  6.884262227E-02
  2.921015530E+01  2.321844432E-01
  9.286662960E+00  4.679413484E-01
  3.163926960E+00  3.623119853E-01
   s   3
  7.868272350E+00 -1.193324198E-01
  1.881288540E+00 -1.608541517E-01
  5.442492580E-01  1.143456438E+00
   s   1
  1.687144782E-01  1.000000000E+00
   p   3
  7.868272350E+00  6.899906659E-02
  1.881288540E+00  3.164239610E-01
  5.442492580E-01  7.443082909E-01
   p   1
  1.687144782E-01  1.000000000E+00
   d   1
  8.000000000E-01  1.000000000E+00
 
   2
   s   6
  3.047524880E+03  1.834737132E-03
  4.573695180E+02  1.403732281E-02
  1.039486850E+02  6.884262227E-02
  2.921015530E+01  2.321844432E-01
  9.286662960E+00  4.679413484E-01
  3.163926960E+00  3.623119853E-01
   s   3
  7.868272350E+00 -1.193324198E-01
  1.881288540E+00 -1.608541517E-01
  5.442492580E-01  1.143456438E+00
   s   1
  1.687144782E-01  1.000000000E+00
   p   3
  7.868272350E+00  6.899906659E-02
  1.881288540E+00  3.164239610E-01
  5.442492580E-01  7.443082909E-01
   p   1
  1.687144782E-01  1.000000000E+00
   d   1
  8.000000000E-01  1.000000000E+00
 
   3
   s   3
  1.873113696E+01  3.349460434E-02
  2.825394365E+00  2.347269535E-01
  6.401216923E-01  8.137573261E-01
   s   1
  1.612777588E-01  1.000000000E+00
 
   4
   s   3
  1.873113696E+01  3.349460434E-02
  2.825394365E+00  2.347269535E-01
  6.401216923E-01  8.137573261E-01
   s   1
  1.612777588E-01  1.000000000E+00
 
   5
   s   3
  1.873113696E+01  3.349460434E-02
  2.825394365E+00  2.347269535E-01
  6.401216923E-01  8.137573261E-01
   s   1
  1.612777588E-01  1.000000000E+00
 
   6
   s   3
  1.873113696E+01  3.349460434E-02
  2.825394365E+00  2.347269535E-01
  6.401216923E-01  8.137573261E-01
   s   1
  1.612777588E-01  1.000000000E+00
 
[MO]
Sym=     1a  
Ene=   -11.2270
Spin= Alpha
Occup=    2.00000
   1         0.70375527
   2         0.01919171
   3        -0.00530475
   4        -0.00014942
   5         0.00000625
   6        -0.00000000
   7         0.00073574
   8        -0.00003072
   9         0.00000000
  10        -0.00131058
  11        -0.00163032
  12        -0.00185953
  13        -0.00001550
  14         0.00000000
  15        -0.00000000
  16         0.70375527
  17         0.01919171
  18        -0.00530475
  19         0.00014942
  20        -0.00000625
  21         0.00000000
  22        -0.00073574
  23         0.00003072
  24         0.00000000
  25        -0.00131058
  26        -0.00163032
  27        -0.00185953
  28        -0.00001550
  29         0.00000000
  30        -0.00000000
  31        -0.00014180
  32         0.00147080
  33        -0.00014184
  34         0.00147078
  35        -0.00014184
  36         0.00147078
  37        -0.00014180
  38         0.00147080
Sym=     2a  
Ene=   -11.2260
Spin= Alpha
Occup=    2.00000
   1        -0.70424053
   2        -0.01969394
   3         0.01110096
   4        -0.00018426
   5         0.00000771
   6         0.00000000
   7         0.00166316
   8        -0.00006962
   9        -0.00000000
  10         0.00095334
  11         0.00126254
  12         0.00175815
  13         0.00001497
  14        -0.00000000
  15        -0.00000000
  16         0.70424053
  17         0.01969394
  18        -0.01110096
  19        -0.00018426
  20         0.00000771
  21         0.00000000
  22         0.00166316
  23        -0.00006962
  24        -0.00000000
  25        -0.00095334
  26        -0.00126254
  27        -0.00175815
  28        -0.00001497
  29         0.00000000
  30        -0.00000000
  31         0.00005891
  32        -0.00152551
  33         0.00005894
  34        -0.00152547
  35        -0.00005894
  36         0.00152547
  37        -0.00005891
  38         0.00152551
Sym=     3a  
Ene=    -1.0296
Spin= Alpha
Occup=    2.00000
   1        -0.15745837
   2         0.29806706
   3         0.23009657
   4         0.10704510
   5        -0.00447759
   6         0.00000000
   7         0.00643412
   8        -0.00026797
   9        -0.00000000
  10         0.01713526
  11         0.00465127
  12        -0.01282163
  13        -0.00060442
  14         0.00000000
  15         0.00000000
  16        -0.15745837
  17         0.29806706
  18         0.23009657
  19        -0.10704510
  20         0.00447759
  21         0.00000000
  22        -0.00643412
  23         0.00026797
  24         0.00000000
  25         0.01713526
  26         0.00465127
  27        -0.01282163
  28        -0.00060442
  29         0.00000000
  30         0.00000000
  31         0.08230102
  32         0.01595351
  33         0.08229930
  34         0.01595165
  35         0.08229930
  36         0.01595165
  37         0.08230102
  38         0.01595351
Sym=     4a  
Ene=    -0.7873
Spin= Alpha
Occup=    2.00000
   1         0.11947801
   2        -0.23129364
   3        -0.23552451
   4         0.16741275
   5        -0.00699985
   6         0.00000000
   7         0.06707252
   8        -0.00280433
   9         0.00000000
  10        -0.00114417
  11        -0.02381719
  12         0.01095825
  13        -0.00109528
  14        -0.00000000
  15        -0.00000000
  16        -0.11947801
  17         0.23129364
  18         0.23552451
  19         0.16741275
  20        -0.00699985
  21         0.00000000
  22         0.06707252
  23        -0.00280433
  24        -0.00000000
  25         0.00114417
  26         0.02381719
  27        -0.01095825
  28         0.00109528
  29         0.00000000
  30        -0.00000000
  31        -0.14623160
  32        -0.06703973
  33        -0.14623792
  34        -0.06704240
  35         0.14623792
  36         0.06704240
  37         0.14623160
  38         0.06703973
Sym=     5a  
Ene=    -0.6375
Spin= Alpha
Occup=    2.00000
   1         0.00000030
   2        -0.00000056
   3        -0.00000145
   4         0.01341826
   5         0.32098714
   6         0.00000000
   7         0.00540225
   8         0.12920304
   9        -0.00000000
  10        -0.00094506
  11         0.00094482
  12         0.00000005
  13        -0.01305226
  14         0.00000000
  15         0.00000000
  16        -0.00000030
  17         0.00000056
  18         0.00000145
  19         0.01341826
  20         0.32098714
  21         0.00000000
  22         0.00540225
  23         0.12920304
  24         0.00000000
  25         0.00094506
  26        -0.00094482
  27        -0.00000005
  28         0.01305226
  29         0.00000000
  30         0.00000000
  31        -0.15726000
  32        -0.10817873
  33         0.15725439
  34         0.10817547
  35        -0.15725439
  36        -0.10817547
  37         0.15726000
  38         0.10817873
Sym=     6a  
Ene=    -0.5838
Spin= Alpha
Occup=    2.00000
   1         0.01197321
   2        -0.02850149
   3         0.01591842
   4        -0.40672746
   5         0.01703220
   6        -0.00000000
   7        -0.15401060
   8         0.00645579
   9        -0.00000000
  10        -0.01141804
  11         0.02656408
  12        -0.00141125
  13         0.00183288
  14        -0.00000000
  15         0.00000000
  16         0.01197321
  17        -0.02850149
  18         0.01591842
  19         0.40672746
  20        -0.01703220
  21         0.00000000
  22         0.15401060
  23        -0.00645579
  24         0.00000000
  25        -0.01141804
  26         0.02656408
  27        -0.00141125
  28         0.00183288
  29        -0.00000000
  30         0.00000000
  31         0.12497794
  32         0.10112687
  33         0.12501954
  34         0.10115285
  35         0.12501954
  36         0.10115285
  37         0.12497794
  38         0.10112687
Sym=     7a  
Ene=    -0.5010
Spin= Alpha
Occup=    2.00000
   1         0.00000319
   2        -0.00000807
   3        -0.00000538
   4        -0.01270084
   5        -0.30281632
   6        -0.00000000
   7        -0.00828660
   8        -0.19780450
   9        -0.00000000
  10         0.00267417
  11        -0.00267219
  12        -0.00000036
  13         0.03689987
  14         0.00000000
  15        -0.00000000
  16         0.00000319
  17        -0.00000807
  18        -0.00000538
  19         0.01270084
  20         0.30281632
  21        -0.00000000
  22         0.00828660
  23         0.19780450
  24        -0.00000000
  25         0.00267417
  26        -0.00267219
  27        -0.00000036
  28         0.03689987
  29        -0.00000000
  30         0.00000000
  31         0.18892572
  32         0.15564149
  33        -0.18889814
  34        -0.15561282
  35        -0.18889814
  36        -0.15561282
  37         0.18892572
  38         0.15564149
Sym=     8a  
Ene=    -0.3726
Spin= Alpha
Occup=    2.00000
   1        -0.00000000
   2         0.00000000
   3         0.00000000
   4        -0.00000000
   5        -0.00000000
   6         0.37490320
   7         0.00000000
   8        -0.00000000
   9         0.30499788
  10        -0.00000000
  11        -0.00000000
  12         0.00000000
  13         0.00000000
  14         0.02546592
  15        -0.00106493
  16         0.00000000
  17        -0.00000000
  18        -0.00000000
  19         0.00000000
  20        -0.00000000
  21         0.37490320
  22         0.00000000
  23         0.00000000
  24         0.30499788
  25         0.00000000
  26         0.00000000
  27         0.00000000
  28         0.00000000
  29        -0.02546592
  30         0.00106493
  31         0.00000000
  32         0.00000000
  33         0.00000000
  34         0.00000000
  35         0.00000000
  36        -0.00000000
  37        -0.00000000
  38         0.00000000
Sym=     9a  
Ene=     0.1824
Spin= Alpha
Occup=    0.00000
   1        -0.00000000
   2        -0.00000000
   3         0.00000000
   4         0.00000000
   5        -0.00000000
   6        -0.34170582
   7         0.00000000
   8        -0.00000000
   9        -0.74136656
  10         0.00000000
  11        -0.00000000
  12        -0.00000000
  13         0.00000000
  14         0.02388211
  15        -0.00099867
  16        -0.00000000
  17         0.00000000
  18        -0.00000000
  19        -0.00000000
  20        -0.00000000
  21         0.34170582
  22         0.00000000
  23         0.00000000
  24         0.74136656
  25         0.00000000
  26        -0.00000000
  27        -0.00000000
  28         0.00000000
  29         0.02388211
  30        -0.00099867
  31        -0.00000000
  32        -0.00000000
  33         0.00000000
  34        -0.00000000
  35         0.00000000
  36        -0.00000000
  37        -0.00000000
  38        -0.00000000
Sym=    10a  
Ene=     0.2657
Spin= Alpha
Occup=    0.00000
   1         0.07788633
   2        -0.08090472
   3        -1.48018747
   4         0.14685433
   5        -0.00613356
   6        -0.00000000
   7         0.64430452
   8        -0.02689342
   9        -0.00000000
  10        -0.00396848
  11         0.01087048
  12         0.00441189
  13         0.00071785
  14         0.00000000
  15         0.00000000
  16         0.07788633
  17        -0.08090472
  18        -1.48018747
  19        -0.14685433
  20         0.00613356
  21         0.00000000
  22        -0.64430452
  23         0.02689342
  24         0.00000000
  25        -0.00396848
  26         0.01087048
  27         0.00441189
  28         0.00071785
  29         0.00000000
  30         0.00000000
  31         0.01395897
  32         1.03049776
  33         0.01395494
  34         1.03047381
  35         0.01395494
  36         1.03047381
  37         0.01395897
  38         1.03049776
Sym=    11a  
Ene=     0.2918
Spin= Alpha
Occup=    0.00000
   1        -0.00002040
   2         0.00002556
   3         0.00027684
   4         0.01061425
   5         0.25418082
   6        -0.00000000
   7         0.03319125
   8         0.79565956
   9        -0.00000000
  10         0.00164621
  11        -0.00164795
  12        -0.00000101
  13         0.02272577
  14         0.00000000
  15         0.00000000
  16         0.00002040
  17        -0.00002556
  18        -0.00027684
  19         0.01061425
  20         0.25418082
  21         0.00000000
  22         0.03319125
  23         0.79565956
  24        -0.00000000
  25        -0.00164621
  26         0.00164795
  27         0.00000101
  28        -0.02272577
  29        -0.00000000
  30        -0.00000000
  31         0.04204106
  32         1.08541884
  33        -0.04204907
  34        -1.08576262
  35         0.04204907
  36         1.08576262
  37        -0.04204106
  38        -1.08541884
Sym=    12a  
Ene=     0.3086
Spin= Alpha
Occup=    0.00000
   1         0.10832484
   2        -0.10337614
   3        -1.92204928
   4         0.10027576
   5        -0.00414379
   6        -0.00000000
   7         0.15866465
   8        -0.00647338
   9        -0.00000000
  10         0.00412557
  11        -0.00097215
  12         0.01087456
  13        -0.00024298
  14         0.00000000
  15         0.00000000
  16        -0.10832484
  17         0.10337614
  18         1.92204928
  19         0.10027576
  20        -0.00414379
  21        -0.00000000
  22         0.15866465
  23        -0.00647338
  24         0.00000000
  25        -0.00412557
  26         0.00097215
  27        -0.01087456
  28         0.00024298
  29        -0.00000000
  30        -0.00000000
  31         0.01753978
  32         1.07070652
  33         0.01753037
  34         1.07032711
  35        -0.01753037
  36        -1.07032711
  37        -0.01753978
  38        -1.07070652
Sym=    13a  
Ene=     0.3922
Spin= Alpha
Occup=    0.00000
   1         0.00000115
   2         0.00000262
   3        -0.00007488
   4        -0.01038801
   5        -0.24895811
   6         0.00000000
   7        -0.07858984
   8        -1.88087148
   9         0.00000000
  10         0.00127776
  11        -0.00127693
  12        -0.00000021
  13         0.01758723
  14         0.00000000
  15        -0.00000000
  16         0.00000115
  17         0.00000262
  18        -0.00007488
  19         0.01038801
  20         0.24895811
  21         0.00000000
  22         0.07858984
  23         1.88087148
  24        -0.00000000
  25         0.00127776
  26        -0.00127693
  27        -0.00000021
  28         0.01758723
  29        -0.00000000
  30         0.00000000
  31         0.04073701
  32        -1.61779400
  33        -0.04074312
  34         1.61788695
  35        -0.04074312
  36         1.61788695
  37         0.04073701
  38        -1.61779400
Sym=    14a  
Ene=     0.4952
Spin= Alpha
Occup=    0.00000
   1        -0.06688419
   2         0.00222047
   3         3.14036612
   4         0.13035942
   5        -0.00545306
   6        -0.00000000
   7         3.00457890
   8        -0.12564776
   9         0.00000000
  10         0.00195726
  11         0.02359031
  12        -0.01169772
  13         0.00104671
  14         0.00000000
  15        -0.00000000
  16         0.06688419
  17        -0.00222047
  18        -3.14036612
  19         0.13035942
  20        -0.00545306
  21        -0.00000000
  22         3.00457890
  23        -0.12564776
  24        -0.00000000
  25        -0.00195726
  26        -0.02359031
  27         0.01169772
  28        -0.00104671
  29        -0.00000000
  30        -0.00000000
  31         0.08032766
  32         0.57894828
  33         0.08030560
  34         0.57906744
  35        -0.08030560
  36        -0.57906744
  37        -0.08032766
  38        -0.57894828
Sym=    15a  
Ene=     0.6650
Spin= Alpha
Occup=    0.00000
   1        -0.02249979
   2        -0.21695902
   3        -0.18622538
   4        -0.55011258
   5         0.02295824
   6        -0.00000000
   7         1.03167905
   8        -0.04311097
   9         0.00000000
  10        -0.07733070
  11         0.03175218
  12        -0.00082005
  13         0.00527826
  14        -0.00000000
  15        -0.00000000
  16        -0.02249979
  17        -0.21695902
  18        -0.18622538
  19         0.55011258
  20        -0.02295824
  21        -0.00000000
  22        -1.03167905
  23         0.04311097
  24         0.00000000
  25        -0.07733070
  26         0.03175218
  27        -0.00082005
  28         0.00527826
  29        -0.00000000
  30         0.00000000
  31         0.09361442
  32         0.06045956
  33         0.09357721
  34         0.06059387
  35         0.09357721
  36         0.06059387
  37         0.09361442
  38         0.06045956
Sym=    16a  
Ene=     0.7692
Spin= Alpha
Occup=    0.00000
   1        -0.00000464
   2        -0.00001917
   3        -0.00006543
   4        -0.01662775
   5        -0.39880083
   6         0.00000000
   7         0.03182404
   8         0.76540558
   9        -0.00000000
  10         0.00675405
  11        -0.00677421
  12         0.00000314
  13         0.09335645
  14         0.00000000
  15         0.00000000
  16         0.00000464
  17         0.00001917
  18         0.00006543
  19        -0.01662775
  20        -0.39880083
  21         0.00000000
  22         0.03182404
  23         0.76540558
  24        -0.00000000
  25        -0.00675405
  26         0.00677421
  27        -0.00000314
  28        -0.09335645
  29        -0.00000000
  30         0.00000000
  31         0.39031692
  32         0.05882252
  33        -0.39038143
  34        -0.05885919
  35         0.39038143
  36         0.05885919
  37        -0.39031692
  38        -0.05882252
Sym=    17a  
Ene=     0.7741
Spin= Alpha
Occup=    0.00000
   1         0.00000000
   2        -0.00000000
   3         0.00000000
   4         0.00000000
   5         0.00000000
   6         0.73734550
   7        -0.00000000
   8        -0.00000000
   9        -0.63958348
  10         0.00000000
  11        -0.00000000
  12        -0.00000000
  13         0.00000000
  14         0.06945659
  15        -0.00290421
  16        -0.00000000
  17        -0.00000000
  18         0.00000000
  19         0.00000000
  20         0.00000000
  21         0.73734550
  22        -0.00000000
  23        -0.00000000
  24        -0.63958348
  25        -0.00000000
  26         0.00000000
  27         0.00000000
  28         0.00000000
  29        -0.06945659
  30         0.00290421
  31        -0.00000000
  32        -0.00000000
  33         0.00000000
  34         0.00000000
  35        -0.00000000
  36        -0.00000000
  37         0.00000000
  38        -0.00000000
Sym=    18a  
Ene=     0.8530
Spin= Alpha
Occup=    0.00000
   1         0.04072457
   2         0.78520765
   3        -1.53452504
   4         0.00893933
   5        -0.00039010
   6         0.00000000
   7         0.37259344
   8        -0.01551284
   9        -0.00000000
  10         0.09236291
  11         0.15623377
  12        -0.04140989
  13         0.00308659
  14        -0.00000000
  15         0.00000000
  16         0.04072457
  17         0.78520765
  18        -1.53452504
  19        -0.00893933
  20         0.00039010
  21        -0.00000000
  22        -0.37259344
  23         0.01551284
  24         0.00000000
  25         0.09236291
  26         0.15623377
  27        -0.04140989
  28         0.00308659
  29        -0.00000000
  30         0.00000000
  31         0.38383956
  32         0.25370495
  33         0.38384524
  34         0.25364873
  35         0.38384524
  36         0.25364873
  37         0.38383956
  38         0.25370495
Sym=    19a  
Ene=     0.8926
Spin= Alpha
Occup=    0.00000
   1         0.00000000
   2        -0.00000000
   3         0.00000000
   4         0.00000000
   5         0.00000000
   6         0.81961702
   7        -0.00000000
   8        -0.00000000
   9        -1.07942181
  10        -0.00000000
  11        -0.00000000
  12         0.00000000
  13         0.00000000
  14        -0.03378860
  15         0.00141292
  16        -0.00000000
  17        -0.00000000
  18         0.00000000
  19         0.00000000
  20        -0.00000000
  21        -0.81961702
  22         0.00000000
  23         0.00000000
  24         1.07942181
  25        -0.00000000
  26        -0.00000000
  27         0.00000000
  28        -0.00000000
  29        -0.03378860
  30         0.00141292
  31        -0.00000000
  32        -0.00000000
  33        -0.00000000
  34        -0.00000000
  35        -0.00000000
  36         0.00000000
  37        -0.00000000
  38        -0.00000000
Sym=    20a  
Ene=     0.9606
Spin= Alpha
Occup=    0.00000
   1         0.09720202
   2         0.07856739
   3        -1.11459099
   4        -0.58377105
   5         0.02432996
   6         0.00000000
   7         0.36054386
   8        -0.01491445
   9        -0.00000000
  10         0.18133735
  11         0.05264096
  12        -0.09232973
  13        -0.00622492
  14        -0.00000000
  15         0.00000000
  16        -0.09720202
  17        -0.07856739
  18         1.11459099
  19        -0.58377105
  20         0.02432996
  21        -0.00000000
  22         0.36054386
  23        -0.01491445
  24         0.00000000
  25        -0.18133735
  26        -0.05264096
  27         0.09232973
  28         0.00622492
  29        -0.00000000
  30         0.00000000
  31         0.38593807
  32         0.09307340
  33         0.38590418
  34         0.09290953
  35        -0.38590418
  36        -0.09290953
  37        -0.38593807
  38        -0.09307340
Sym=    21a  
Ene=     1.1075
Spin= Alpha
Occup=    0.00000
   1        -0.00000720
   2        -0.00001958
   3         0.00014776
   4        -0.02867748
   5        -0.68623276
   6         0.00000000
   7         0.04609977
   8         1.10120585
   9        -0.00000000
  10        -0.01347017
  11         0.01345111
  12         0.00000876
  13        -0.18560375
  14        -0.00000000
  15        -0.00000000
  16         0.00000720
  17         0.00001958
  18        -0.00014776
  19        -0.02867748
  20        -0.68623276
  21        -0.00000000
  22         0.04609977
  23         1.10120585
  24         0.00000000
  25         0.01347017
  26        -0.01345111
  27        -0.00000876
  28         0.18560375
  29         0.00000000
  30         0.00000000
  31        -0.37938234
  32         1.06014286
  33         0.37929599
  34        -1.06005674
  35        -0.37929599
  36         1.06005674
  37         0.37938234
  38        -1.06014286
Sym=    22a  
Ene=     1.1590
Spin= Alpha
Occup=    0.00000
   1        -0.00000086
   2         0.00001126
   3        -0.00012861
   4         0.03860253
   5         0.92416829
   6        -0.00000000
   7        -0.12100543
   8        -2.89764717
   9         0.00000000
  10        -0.00048997
  11         0.00049246
  12         0.00000248
  13        -0.00666284
  14         0.00000000
  15         0.00000000
  16        -0.00000086
  17         0.00001126
  18        -0.00012861
  19        -0.03860253
  20        -0.92416829
  21        -0.00000000
  22         0.12100543
  23         2.89764717
  24        -0.00000000
  25        -0.00048997
  26         0.00049246
  27         0.00000248
  28        -0.00666284
  29         0.00000000
  30         0.00000000
  31         0.16096312
  32        -1.48247728
  33        -0.16094475
  34         1.48258943
  35        -0.16094475
  36         1.48258943
  37         0.16096312
  38        -1.48247728
Sym=    23a  
Ene=     1.2041
Spin= Alpha
Occup=    0.00000
   1        -0.01788696
   2         0.92871663
   3        -1.73265681
   4        -0.36933732
   5         0.01543479
   6         0.00000000
   7         0.49290369
   8        -0.02062500
   9        -0.00000000
  10         0.10042112
  11        -0.05733987
  12         0.11637639
  13        -0.00762433
  14         0.00000000
  15        -0.00000000
  16        -0.01788696
  17         0.92871663
  18        -1.73265681
  19         0.36933732
  20        -0.01543479
  21         0.00000000
  22        -0.49290369
  23         0.02062500
  24        -0.00000000
  25         0.10042112
  26        -0.05733987
  27         0.11637639
  28        -0.00762433
  29        -0.00000000
  30        -0.00000000
  31        -0.45158969
  32         0.87161644
  33        -0.45157833
  34         0.87163379
  35        -0.45157833
  36         0.87163379
  37        -0.45158969
  38         0.87161644
Sym=    24a  
Ene=     1.2133
Spin= Alpha
Occup=    0.00000
   1        -0.01718023
   2         0.57585631
   3        -0.96842445
   4        -0.58954889
   5         0.02466157
   6         0.00000000
   7         1.07016146
   8        -0.04476568
   9        -0.00000000
  10         0.14280826
  11        -0.09308998
  12         0.09872966
  13        -0.01139478
  14        -0.00000000
  15        -0.00000000
  16         0.01718023
  17        -0.57585631
  18         0.96842445
  19        -0.58954889
  20         0.02466157
  21        -0.00000000
  22         1.07016146
  23        -0.04476568
  24         0.00000000
  25        -0.14280826
  26         0.09308998
  27        -0.09872966
  28         0.01139478
  29         0.00000000
  30        -0.00000000
  31        -0.46046395
  32         1.00117951
  33        -0.46050031
  34         1.00127212
  35         0.46050031
  36        -1.00127212
  37         0.46046395
  38        -1.00117951
Sym=    25a  
Ene=     1.3399
Spin= Alpha
Occup=    0.00000
   1         0.03036077
   2         1.44978294
   3        -5.50912176
   4         0.34104982
   5        -0.01428833
   6        -0.00000000
   7        -2.06903790
   8         0.08659365
   9        -0.00000000
  10        -0.06178338
  11         0.20966804
  12         0.05849382
  13         0.01312483
  14         0.00000000
  15         0.00000000
  16        -0.03036077
  17        -1.44978294
  18         5.50912176
  19         0.34104982
  20        -0.01428833
  21        -0.00000000
  22        -2.06903790
  23         0.08659365
  24         0.00000000
  25         0.06178338
  26        -0.20966804
  27        -0.05849382
  28        -0.01312483
  29        -0.00000000
  30         0.00000000
  31         0.14257998
  32         0.26166140
  33         0.14258950
  34         0.26154908
  35        -0.14258950
  36        -0.26154908
  37        -0.14257998
  38        -0.26166140
Sym=    26a  
Ene=     1.4805
Spin= Alpha
Occup=    0.00000
   1        -0.00000051
   2        -0.00002810
   3        -0.00011156
   4         0.00193223
   5         0.04704359
   6         0.00000000
   7        -0.10889364
   8        -2.60849077
   9         0.00000000
  10        -0.01205089
  11         0.01202973
  12         0.00001374
  13        -0.16613951
  14         0.00000000
  15         0.00000000
  16        -0.00000051
  17        -0.00002810
  18        -0.00011156
  19        -0.00193223
  20        -0.04704359
  21        -0.00000000
  22         0.10889364
  23         2.60849077
  24        -0.00000000
  25        -0.01205089
  26         0.01202973
  27         0.00001374
  28        -0.16613951
  29        -0.00000000
  30        -0.00000000
  31        -0.69743295
  32        -0.68766750
  33         0.69747011
  34         0.68778304
  35         0.69747011
  36         0.68778304
  37        -0.69743295
  38        -0.68766750
Sym=    27a  
Ene=     1.7448
Spin= Alpha
Occup=    0.00000
   1         0.00000000
   2         0.00000000
   3        -0.00000000
   4         0.00000000
   5        -0.00000000
   6         0.19627592
   7        -0.00000000
   8        -0.00000000
   9        -0.04549911
  10        -0.00000000
  11         0.00000000
  12         0.00000000
  13         0.00000000
  14        -0.61684103
  15         0.02579627
  16        -0.00000000
  17         0.00000000
  18         0.00000000
  19         0.00000000
  20         0.00000000
  21         0.19627592
  22        -0.00000000
  23         0.00000000
  24        -0.04549911
  25        -0.00000000
  26         0.00000000
  27        -0.00000000
  28         0.00000000
  29         0.61684103
  30        -0.02579627
  31        -0.00000000
  32        -0.00000000
  33         0.00000000
  34         0.00000000
  35        -0.00000000
  36         0.00000000
  37        -0.00000000
  38        -0.00000000
Sym=    28a  
Ene=     1.8186
Spin= Alpha
Occup=    0.00000
   1         0.00000000
   2        -0.00000000
   3         0.00000000
   4         0.00000000
   5        -0.00000000
   6        -0.00000031
   7         0.00000000
   8         0.00000000
   9        -0.00000056
  10         0.00000000
  11        -0.00000000
  12         0.00000000
  13        -0.00000000
  14         0.02840657
  15         0.67936949
  16         0.00000000
  17         0.00000000
  18        -0.00000000
  19         0.00000000
  20         0.00000000
  21         0.00000031
  22         0.00000000
  23        -0.00000000
  24         0.00000056
  25        -0.00000000
  26        -0.00000000
  27        -0.00000000
  28        -0.00000000
  29         0.02840657
  30         0.67936949
  31        -0.00000000
  32         0.00000000
  33        -0.00000000
  34        -0.00000000
  35        -0.00000000
  36        -0.00000000
  37        -0.00000000
  38         0.00000000
Sym=    29a  
Ene=     2.1349
Spin= Alpha
Occup=    0.00000
   1        -0.00000000
   2         0.00000000
   3        -0.00000000
   4         0.00000000
   5         0.00000000
   6         0.00000081
   7        -0.00000000
   8        -0.00000000