[Molden Format]
made by pyscf v[2.13.1]
[Atoms] (AU)
C   1   6     0.00000000000000     1.26026583578789     0.00000000000000
C   2   6     0.00000000000000    -1.26026583578789     0.00000000000000
H   3   1     0.00000000000000     2.32345974964118     1.74287671684983
H   4   1     0.00000000000000    -2.32345974964118     1.74287671684983
H   5   1     0.00000000000000     2.32345974964118    -1.74287671684983
H   6   1     0.00000000000000    -2.32345974964118    -1.74287671684983
[GTO]
1 0
 s    8 1.00
                  6665  0.00069158396281299
                  1000  0.0053257961529341
                   228   0.027060721042034
                 64.71    0.10165684614077
                 21.06     0.2745748236174
                 7.495    0.44829431892377
                 2.797    0.28490261071525
                0.5215   0.015194859206082
 s    8 1.00
                  6665  -0.00029326965268655
                  1000  -0.0023180354739745
                   228  -0.011499786038565
                 64.71  -0.046826727009787
                 21.06   -0.12846616875047
                 7.495   -0.30126627246289
                 2.797   -0.25563070233011
                0.5215      1.093793361012
 s    1 1.00
                0.1596                   1
 s    1 1.00
                0.0469                   1
 p    3 1.00
                 9.439   0.056979251590039
                 2.002    0.31320721150073
                0.5456    0.76037674173753
 p    1 1.00
                0.1517                   1
 p    1 1.00
               0.04041                   1
 d    1 1.00
                  0.55                   1
 d    1 1.00
                 0.151                   1

2 0
 s    8 1.00
                  6665  0.00069158396281299
                  1000  0.0053257961529341
                   228   0.027060721042034
                 64.71    0.10165684614077
                 21.06     0.2745748236174
                 7.495    0.44829431892377
                 2.797    0.28490261071525
                0.5215   0.015194859206082
 s    8 1.00
                  6665  -0.00029326965268655
                  1000  -0.0023180354739745
                   228  -0.011499786038565
                 64.71  -0.046826727009787
                 21.06   -0.12846616875047
                 7.495   -0.30126627246289
                 2.797   -0.25563070233011
                0.5215      1.093793361012
 s    1 1.00
                0.1596                   1
 s    1 1.00
                0.0469                   1
 p    3 1.00
                 9.439   0.056979251590039
                 2.002    0.31320721150073
                0.5456    0.76037674173753
 p    1 1.00
                0.1517                   1
 p    1 1.00
               0.04041                   1
 d    1 1.00
                  0.55                   1
 d    1 1.00
                 0.151                   1

3 0
 s    3 1.00
                 13.01   0.033498726389998
                 1.962    0.23480080117413
                0.4446     0.8136829578829
 s    1 1.00
                 0.122                   1
 s    1 1.00
               0.02974                   1
 p    1 1.00
                 0.727                   1
 p    1 1.00
                 0.141                   1

4 0
 s    3 1.00
                 13.01   0.033498726389998
                 1.962    0.23480080117413
                0.4446     0.8136829578829
 s    1 1.00
                 0.122                   1
 s    1 1.00
               0.02974                   1
 p    1 1.00
                 0.727                   1
 p    1 1.00
                 0.141                   1

5 0
 s    3 1.00
                 13.01   0.033498726389998
                 1.962    0.23480080117413
                0.4446     0.8136829578829
 s    1 1.00
                 0.122                   1
 s    1 1.00
               0.02974                   1
 p    1 1.00
                 0.727                   1
 p    1 1.00
                 0.141                   1

6 0
 s    3 1.00
                 13.01   0.033498726389998
                 1.962    0.23480080117413
                0.4446     0.8136829578829
 s    1 1.00
                 0.122                   1
 s    1 1.00
               0.02974                   1
 p    1 1.00
                 0.727                   1
 p    1 1.00
                 0.141                   1

[5d]
[7f]
[9g]

[MO]
 Sym= A
 Ene=               0
 Spin= Alpha
 Occup=    1.97691
   1    -6.3939698314088e-16
   2    -2.3997951781137e-12
   3    -3.0969601739597e-12
   4    5.1235460845563e-12
   5      0.40749241921122
   6    2.4184112551258e-11
   7    1.697130453437e-10
   8      0.26179049696566
   9    7.3730755706732e-12
  10    6.2188960693255e-11
  11     0.012450168586663
  12    2.4974521420024e-12
  13    -3.4856035560439e-11
  14    1.3715389994868e-12
  15    -2.6237898159642e-08
  16    1.9765912811584e-11
  17    9.3028299984224e-13
  18    -0.031972779214589
  19    -2.058931374446e-12
  20    -1.866778926229e-08
  21    -5.3265948125211e-11
  22    -1.3635272164444e-12
  23    -0.0030628264715984
  24    6.7207487674899e-15
  25    -2.3866593660233e-12
  26    -3.431370338461e-12
  27    5.4066353007972e-12
  28      0.40750241903072
  29    -2.4193122202378e-11
  30    -1.6162175051157e-10
  31      0.26179575609631
  32    -7.811382536578e-12
  33    -4.8873452240851e-11
  34     0.012449476563132
  35    -2.454681833806e-12
  36    5.7587825841909e-11
  37    1.3706943649787e-12
  38    -3.6524742571016e-09
  39    2.0482828457861e-11
  40    9.3146968426195e-13
  41     0.031971520082018
  42    -1.9823943006341e-12
  43    -2.2279124140038e-08
  44    -5.2730203121272e-11
  45    -1.2986621345424e-12
  46    0.0030620399279688
  47    1.4259014412589e-10
  48    1.5398371048711e-10
  49    -1.9289077366445e-11
  50     0.015362531990781
  51    -6.0481394719277e-12
  52    -5.0794564450811e-12
  53    0.00011318849738028
  54    -8.7469208835457e-12
  55    -3.1780915904576e-11
  56    -1.2528822717863e-10
  57    -1.6016316974086e-10
  58    -8.2929364977566e-11
  59      0.01536346788018
  60    -6.1399521841076e-12
  61    3.1984747411157e-12
  62    0.00011407816542828
  63    -8.237349106026e-12
  64    3.1984289781674e-11
  65    -1.2524561983411e-10
  66    -1.4535812679313e-10
  67    1.0828691457381e-11
  68     0.015362549821802
  69    6.4619289028891e-12
  70    -3.6288389466026e-12
  71    0.00011318441604106
  72    5.3646559363065e-12
  73    -3.1376478015341e-11
  74    1.426300091115e-10
  75    1.6834433855978e-10
  76    7.444765277016e-11
  77     0.015363494949868
  78    5.7302923852525e-12
  79    4.653028693863e-12
  80    0.00011413759005285
  81    1.1537583367736e-11
  82    3.2301417706879e-11
 Sym= A
 Ene=               1
 Spin= Alpha
 Occup=    1.97691
   1    -0.00046693561482783
   2      0.07779383676506
   3      0.38964321423971
   4      0.87048473932052
   5    1.1437435775139e-10
   6     0.074089352271527
   7     2.53509056049e-07
   8    1.2391787904965e-10
   9      0.12766410662887
  10    2.907701623435e-06
  11    5.8884238398561e-11
  12      0.31744908293439
  13    3.0211480268362e-05
  14    -0.0039208792964928
  15    -1.6345444730374e-16
  16    -2.0629633911442e-07
  17    -0.0061934692798485
  18    3.2779357782594e-12
  19     0.010449717639497
  20    -1.7005145848765e-15
  21    -3.4779572905704e-07
  22    -0.010221702855459
  23    -6.2283156621597e-13
  24    -0.0004656534573642
  25      0.07780808005851
  26      0.38964497116419
  27      0.87046749390081
  28    -6.1591327818669e-11
  29    -0.074097517312343
  30    6.4660479029586e-07
  31    -9.0017065091371e-11
  32     -0.12772819352775
  33    -5.2126542810623e-06
  34    -5.7468055510339e-11
  35     -0.31750645303093
  36    -2.9790201417543e-05
  37    -0.0039204211123886
  38    -2.657336679204e-16
  39    -4.3498321305767e-07
  40    -0.0061921282942809
  41    7.4269047710094e-12
  42     0.010455950239909
  43    6.7199524067445e-16
  44    2.6540842571939e-06
  45    -0.010215903777764
  46    -1.2671404891258e-13
  47    0.0063957183702238
  48      -0.2262639753386
  49     -0.62025046944761
  50    4.7611979917006e-12
  51    -0.00075467992083898
  52    -0.0094835032511745
  53    4.5713767209332e-12
  54     0.026763445090911
  55     0.014439081685988
  56    0.0063947305839877
  57     -0.22629260924286
  58     -0.62034593763228
  59    -2.7689627678127e-12
  60    0.00075598750781966
  61    -0.0094854785427313
  62    -4.619098044465e-12
  63     -0.02676154317676
  64     0.014442929330846
  65    0.0063954286662104
  66     -0.22625415033735
  67     -0.62019718435381
  68    4.7616394907873e-12
  69    -0.00075478714868514
  70    0.0094837672783206
  71    4.570768965188e-12
  72     0.026758995921177
  73    -0.014440360649236
  74    0.0063952218980834
  75      -0.2263163946012
  76     -0.62038432747958
  77    -2.7691297944604e-12
  78    0.0007559391930313
  79    0.0094852537207776
  80    -4.6176018823712e-12
  81    -0.026760837225318
  82     -0.01444780661962
 Sym= A
 Ene=               2
 Spin= Alpha
 Occup=    0.00004
   1    -0.00046136590925822
   2     0.075889042205139
   3      0.38557641446866
   4      0.86930989484772
   5    7.5710146455572e-09
   6      0.08889526682698
   7    2.3964537078645e-05
   8    9.1984128163631e-09
   9      0.13178087329537
  10    4.2538009979754e-05
  11    4.9973744997475e-09
  12      0.31737183073148
  13    9.8385479812975e-05
  14    -0.0030381394250064
  15    -6.836375007224e-16
  16    -2.4201435173379e-06
  17    -0.0055773580699305
  18    4.6135914620146e-10
  19    0.0091278179816818
  20    -3.1736415864715e-15
  21    -1.7886088543964e-06
  22    -0.010999990722484
  23    -3.0533593496891e-11
  24    -0.00046010308909873
  25     0.075903532481899
  26      0.38557843882325
  27      0.86929230101521
  28    -7.5782389991285e-09
  29    -0.088903708936176
  30    2.546378690931e-05
  31    -9.2030723011882e-09
  32     -0.13184489130115
  33    3.4788561458042e-05
  34    -4.997793489974e-09
  35     -0.31742925715427
  36    3.8140339989587e-05
  37    -0.003037680936667
  38    -5.4177780348426e-16
  39    1.642332122733e-06
  40    -0.0055760226307567
  41    4.6081480653177e-10
  42    0.0091339432695621
  43    -1.1044258887365e-16
  44    4.4425160730692e-06
  45    -0.010994232668403
  46    -3.0466925156425e-11
  47     0.011801036805704
  48     -0.22249615551652
  49     -0.61999927667481
  50    3.2378949621688e-10
  51    -0.00062209157415746
  52    -0.0098911346326474
  53    3.9644868633111e-10
  54     0.025581107921879
  55     0.014249355321386
  56     0.011801218925078
  57     -0.22252361998579
  58     -0.62009452865494
  59    -3.2406472256365e-10
  60    0.00062345181498417
  61    -0.0098931693780641
  62    -3.9651730254553e-10
  63    -0.025579112827548
  64     0.014252997249155
  65     0.011801825790913
  66     -0.22239816455656
  67     -0.61938434533627
  68    3.2379005430738e-10
  69    -0.00062032023672485
  70    0.0098888577722365
  71    3.9644489502648e-10
  72     0.025559673030607
  73    -0.014247090235757
  74     0.011800997912578
  75     -0.22246130397519
  76     -0.61957157255716
  77    -3.2406494676852e-10
  78    0.0006214433270981
  79    0.0098903473692219
  80    -3.9651875069929e-10
  81    -0.025561534954805
  82    -0.014254751567409
 Sym= A
 Ene=               3
 Spin= Alpha
 Occup=    0.00004
   1    -7.0256821194038e-14
   2    2.1019023845869e-11
   3    5.7999154627266e-11
   4    6.2049891000905e-11
   5     -0.40747472661832
   6    -1.2296277685318e-10
   7    -2.9121865758693e-11
   8     -0.26176900667435
   9    -2.7612285160044e-11
  10    6.4873518418318e-11
  11    -0.012438496004732
  12    1.9529833743794e-11
  13    1.8456491452424e-10
  14    -7.8253433571347e-12
  15    2.6236678535598e-08
  16    -1.5570102848474e-11
  17    -5.669166180725e-12
  18     0.031973856125936
  19    1.2030435672082e-11
  20    1.8664367735565e-08
  21    2.3847722310538e-11
  22    6.1239085518199e-12
  23    0.0030627552514535
  24    -7.6820701312018e-14
  25    2.1007299619717e-11
  26    5.8307113484483e-11
  27    6.176448946079e-11
  28     -0.40752011058517
  29    1.2297275229817e-10
  30    1.439138883857e-10
  31     -0.26181724574107
  32    2.8000862563687e-11
  33    1.2291893089156e-10
  34    -0.012461149118407
  35    -1.9589905329257e-11
  36    1.3632194604895e-10
  37    -7.8243693526667e-12
  38    3.6518395200359e-09
  39    -5.4497093570847e-12
  40    -5.6694080540807e-12
  41    -0.031970443053928
  42    1.1961222463535e-11
  43    2.2277245684963e-08
  44    3.1515653951813e-11
  45    6.0671104678124e-12
  46    -0.0030621110901446
  47    -1.1617718775504e-10
  48    -2.3092784109297e-10
  49    -7.2001248759083e-10
  50    -0.015361775386041
  51    -2.798522812937e-13
  52    2.0587223666278e-12
  53    -0.00011226241259572
  54    3.6226778497474e-11
  55    2.3065379566069e-11
  56    2.3717248701858e-11
  57    -6.6828571844253e-11
  58    -6.8686271905585e-10
  59    -0.015364224457944
  60    6.644114996986e-12
  61    -2.2633790827733e-12
  62    -0.00011500426032425
  63    -2.7353526539506e-11
  64    -1.0242986608075e-11
  65    2.3904102298837e-11
  66    1.3824443352443e-10
  67    6.3705199013941e-10
  68    -0.015361793216783
  69    -2.1076476285389e-12
  70    -3.8054690967559e-12
  71    -0.00011225833871126
  72    -1.2529330410102e-11
  73    1.8027166957918e-11
  74    -1.1599028780581e-10
  75    -2.5468051505141e-11
  76    6.0385910117503e-10
  77    -0.015364251527757
  78    -4.2597606191994e-12
  79    -8.1310706382232e-12
  80    -0.00011506369194222
  81    3.7278199423458e-12
  82    -1.520692163701e-11
 Sym= A
 Ene=               4
 Spin= Alpha
 Occup=    0.00000
   1    1.6326881046079e-05
   2    -0.0053897714569285
   3    -0.011884196046168
   4    -0.0046832391334504
   5    -4.3770003767742e-07
   6      0.04077953108647
   7     -0.31941705912399
   8    -5.3177552389391e-07
   9     0.011167156102783
  10     -0.10702518707423
  11    -2.8890585962285e-07
  12    -0.00073760875614438
  13     0.089143273906175
  14    0.0024450296841018
  15    2.7301922941734e-14
  16    -0.038804666673333
  17    0.0017124754203902
  18    -2.6671982948104e-08
  19    -0.0036680400540378
  20    8.297819039545e-14
  21      0.10218747510905
  22    -0.002132023240782
  23    1.761175921493e-09
  24    1.6017242516198e-05
  25    -0.0053900506675359
  26    -0.011872046411403
  27    -0.0046840285273815
  28    4.3810629045362e-07
  29    -0.040779954895923
  30      0.31948596833065
  31    5.3203702835123e-07
  32    -0.011155551042239
  33      0.10701303152963
  34    2.8891839805058e-07
  35    0.00073780976194023
  36    -0.089189449098294
  37    0.0024451387740337
  38    1.605156966898e-14
  39    -0.038805537719546
  40    0.0017121684921184
  41    -2.6640981550563e-08
  42    -0.0036701954740191
  43    4.884902558828e-14
  44      0.10219743232695
  45    -0.0021343053411023
  46    1.762987678566e-09
  47     -0.24331983461752
  48     -0.29180266230146
  49    -0.058786504694301
  50    -1.8718867358513e-08
  51     0.012122313424989
  52    0.0068747353614265
  53    -2.2921813228811e-08
  54       0.0130146824845
  55     0.060896765919019
  56      0.27322359924229
  57      0.31366875474683
  58     0.063955543572815
  59    1.8734481605259e-08
  60     0.011384481725004
  61    -0.0090910816841217
  62    2.2922179880921e-08
  63     0.019686558240044
  64    -0.062009753932916
  65      0.27316751538774
  66      0.31360703830825
  67     0.063774285682484
  68    -1.8718871206142e-08
  69    -0.011382319405534
  70    0.0090890060764958
  71    -2.2921627449553e-08
  72    -0.019680963499682
  73     0.062001841594256
  74     -0.24337591473318
  75     -0.29185494000189
  76    -0.058966701607639
  77    1.8734488101876e-08
  78    -0.012124948564896
  79    -0.0068771036929545
  80    2.2922361076326e-08
  81    -0.013017462192227
  82    -0.060902910792612
 Sym= A
 Ene=               5
 Spin= Alpha
 Occup=    0.00000
   1    5.4877052835318e-12
   2    -2.1517811739746e-09
   3    -4.4455520776833e-09
   4    -9.3031519829988e-10
   5      0.42576002233326
   6    1.7022817723659e-08
   7    2.1119284234697e-07
   8      0.51714416556887
   9    4.7092251667577e-09
  10    3.5025315211401e-07
  11      0.28088729098556
  12    3.682096924322e-11
  13    6.015244275407e-07
  14    1.0108837042976e-09
  15    -2.9349371365346e-08
  16    -1.9379922777265e-08
  17    7.0279500260035e-10
  18     0.025913947709253
  19    -1.5213088793913e-09
  20    -8.233542680174e-08
  21    -1.3175401080693e-08
  22    -9.095651011641e-10
  23    -0.0017138931282094
  24    7.2510988192989e-12
  25    -2.1447047020543e-09
  26    -4.5219695412369e-09
  27    -9.4423543861106e-10
  28     -0.42571809930312
  29    -1.7024394207153e-08
  30    2.1841197605129e-07
  31     -0.51711772806917
  32    -4.8565352227234e-09
  33    3.5272451610205e-07
  34     -0.28088613217497
  35    -8.5298969339975e-11
  36    5.9958049428753e-07
  37    1.0113310051306e-09
  38    -1.5274281011091e-08
  39    1.8501982395143e-08
  40    7.0537812795305e-10
  41     0.025918085625668
  42    -1.5015369685492e-09
  43    -4.5203287316382e-08
  44    1.5508719610825e-08
  45    -8.856615403731e-10
  46    -0.0017123709086745
  47    2.9118736779238e-09
  48    -3.8332846561056e-07
  49    -2.4779050596861e-06
  50     0.018207127361671
  51    -8.2051086963925e-09
  52    -1.1740411856266e-08
  53     0.022285149573046
  54    7.3532726496854e-08
  55    1.5126596565024e-08
  56    8.7496998023763e-09
  57    -3.7658873245746e-07
  58    -2.4767716545794e-06
  59    -0.018205839795122
  60    8.4720104542576e-09
  61    -1.1920997432208e-08
  62    -0.022285388170109
  63    -7.319331094734e-08
  64    1.3753427686336e-08
  65    9.4983422193411e-09
  66    3.9194695259335e-07
  67    2.4786169808404e-06
  68     0.018207134079961
  69    8.5128262269357e-09
  70    -1.0799523206595e-08
  71     0.022284970182906
  72    -7.6255558793866e-08
  73    1.5574279117805e-08
  74    3.664108781205e-09
  75    3.8504171228023e-07
  76    2.4773286713504e-06
  77    -0.018205842791736
  78    -8.7767324783051e-09
  79    -1.097819386549e-08
  80    -0.022285556457095
  81    7.5884348127379e-08
  82    1.4159569586069e-08
 Sym= A
 Ene=               6
 Spin= Alpha
 Occup=    0.00000
   1    -2.0546802559532e-10
   2    7.0015805162147e-08
   3    1.5038639325195e-07
   4    4.6537835428539e-08
   5      0.42574308888728
   6    -5.4145489958024e-07
   7    -3.8511541433838e-07
   8      0.51713328701185
   9    -1.5010389648714e-07
  10    -1.480736710742e-07
  11       0.2808867738471
  12    4.1224452330223e-09
  13    6.2499576718914e-08
  14    -3.2315990220579e-08
  15    -2.9348281044815e-08
  16    -4.3719203237905e-08
  17    -2.2568791373375e-08
  18     0.025915276397043
  19    4.8413437406341e-08
  20    -8.233465111149e-08
  21    1.1950215957428e-07
  22    2.8438342005667e-08
  23    -0.0017137658504317
  24    -2.0515561106095e-10
  25    7.0005319777151e-08
  26    1.5039397813378e-07
  27    4.6550132577629e-08
  28     -0.42573503389987
  29    5.4146538479545e-07
  30    3.5594315707907e-07
  31     -0.51712860773779
  32    1.5012275593859e-07
  33    1.0018423536569e-07
  34     -0.28088664976974
  35    -4.1178106729598e-09
  36    -1.4435463916556e-07
  37    -3.2315900099095e-08
  38    -1.5274129241535e-08
  39    -4.6300113006335e-08
  40    -2.2569083266199e-08
  41     0.025916757034958
  42    4.841406544383e-08
  43    -4.520236152092e-08
  44    1.1756103015437e-07
  45    2.8435941978429e-08
  46    -0.001712498156725
  47    -4.9728396938828e-07
  48    -4.6534408791433e-07
  49    7.5656993790188e-08
  50     0.018206488969802
  51    9.3205091166188e-09
  52    2.4861727802954e-08
  53     0.022285144888611
  54    5.7557325413077e-08
  55    7.7343177026926e-08
  56    1.0183963059148e-07
  57    2.3693850134443e-07
  58    2.1803970763701e-07
  59    -0.018206478257324
  60    1.7944289671181e-08
  61    6.3443598738212e-09
  62        -0.02228539293
  63    -1.9627001797576e-08
  64    -6.5216294168747e-08
  65    1.0173055198014e-07
  66    1.8452978983999e-07
  67    -1.1965345077645e-07
  68     0.018206495687352
  69    -1.9098786021162e-08
  70    -4.7983770267094e-09
  71      0.02228496549864
  72    2.9809995021342e-08
  73    6.3209217262756e-08
  74    -4.9741508839944e-07
  75    -5.1774335174665e-07
  76    -2.6203249609962e-07
  77    -0.018206481255063
  78    -8.1676724867157e-09
  79    -2.3318660854624e-08
  80    -0.022285561219456
  81    -6.7737977335201e-08
  82    -7.9345334681181e-08
 Sym= A
 Ene=               7
 Spin= Alpha
 Occup=    0.00000
   1    -0.00012499168776706
   2     0.043880824661798
   3     0.090537296422683
   4     0.015469123183497
   5    9.2747460335187e-08
   6     -0.35065593919973
   7       0.1695654978356
   8    1.1264493115729e-07
   9    -0.099007565661422
  10      0.03993083515039
  11    6.1177815958942e-08
  12    -0.0026498982051641
  13    -0.087220804082623
  14    -0.020788789004338
  15    -4.359629976994e-15
  16     0.023320317391863
  17    -0.014460946633422
  18    5.6427426248768e-09
  19     0.031066610908927
  20    -1.5950619790038e-14
  21    -0.057532426381813
  22     0.018521808186762
  23    -3.7340997317613e-10
  24    -0.00012451106240463
  25     0.043874934941874
  26     0.090528844374641
  27     0.015478216761123
  28    -9.2704673967176e-08
  29      0.35066247773535
  30     -0.19555408314698
  31    -1.1261754322365e-07
  32     0.099008875908586
  33    -0.082390426131461
  34    -6.1176541677367e-08
  35    0.0026546588901778
  36     0.014687924655276
  37    -0.020788890672662
  38    -3.4194653948187e-15
  39     0.021032389104376
  40    -0.014460819326653
  41    5.646286127049e-09
  42     0.031068964770619
  43    -1.1334085265226e-14
  44     -0.05927051029507
  45     0.018522546169499
  46    -3.7283375662378e-10
  47     0.019865840127202
  48      0.10937889025685
  49      0.18087039560833
  50    3.9661508961607e-09
  51    -0.0093455975389802
  52    0.0058539208362819
  53    4.8537105516708e-09
  54     0.013886078438302
  55    -0.031683741713116
  56     -0.27533392743639
  57     -0.23663159233997
  58      0.11074193207446
  59    -3.9646002791866e-09
  60    -0.0040883960272342
  61     0.014978786624132
  62    -4.8537572192313e-09
  63    -0.032573238835768
  64       0.0385536247952
  65     -0.27534328374665
  66     -0.28302247457534
  67     -0.18851174848682
  68    3.9661506262455e-09
  69    0.0030609389535848
  70    -0.013604455244209
  71    4.8536726832552e-09
  72     0.041597415391749
  73    -0.040321172706565
  74     0.019844234192801
  75      0.06298751315939
  76     -0.11837360312676
  77    -3.9646028150699e-09
  78     0.010372593723293
  79    -0.0044809601000523
  80    -4.8537979166591e-09
  81    -0.022911618820161
  82     0.029917967592714
 Sym= A
 Ene=               8
 Spin= Alpha
 Occup=    0.00000
   1    -0.00016836858235615
   2     0.056178874170709
   3      0.12378822793391
   4     0.048798409634134
   5    -5.8340738688126e-07
   6     -0.42500004883418
   7    -0.032492394216593
   8    -7.0866618493945e-07
   9     -0.11632818551584
  10    -0.013298492852944
  11    -3.8493357088272e-07
  12    0.0076849140659481
  13    0.0033723665527433
  14    -0.025482258897139
  15    4.0137525158286e-14
  16    -0.0035591137442314
  17     -0.01784486058702
  18    -3.5518332750659e-08
  19     0.038238482128878
  20    1.1345036979391e-13
  21    0.0099262538352286
  22      0.02223189315546
  23    2.348275119369e-09
  24    -0.0001678236762585
  25     0.056171882106326
  26      0.12378206028514
  27     0.048808222990239
  28    5.8348132922804e-07
  29      0.42500792321389
  30     0.028797401035783
  31    7.0871437844203e-07
  32      0.11632696758163
  33    0.0072337010634842
  34    3.849359846347e-07
  35    -0.0076839988383128
  36    -0.013738359623521
  37    -0.025482251682711
  38    2.1177786429051e-14
  39    -0.0038859543791093
  40    -0.017844719437902
  41    -3.5513692179538e-08
  42     0.038241395723262
  43    6.187967828401e-14
  44    0.0096804268312554
  45     0.022232839408648
  46    2.3471697556759e-09
  47     -0.18029760097555
  48     -0.13936360208063
  49    -0.010492976654201
  50    -2.4949065687497e-08
  51    -0.0026567936524506
  52      0.01239992533537
  53    -3.0540162721855e-08
  54     0.035669250483623
  55     0.011530101018293
  56     -0.13075376412475
  57    -0.081284375321814
  58    0.0012812198977891
  59    2.4952254029907e-08
  60    0.0049114624310458
  61     0.010869219760635
  62    3.0540517707732e-08
  63    -0.032533098570547
  64    -0.00026050846967305
  65     -0.13076048235043
  66    -0.087916913826819
  67    -0.041479460761814
  68    -2.4949074583366e-08
  69    -0.0050579475782159
  70    -0.010672698085333
  71    -3.0539915802151e-08
  72     0.033821608845757
  73    6.3556504128835e-06
  74     -0.18032030130984
  75      -0.1460038998325
  76    -0.053261476033785
  77    2.4952258536026e-08
  78    0.0028025716645506
  79    -0.012205200599525
  80    3.0540748671534e-08
  81    -0.036959427933114
  82    -0.011783778848785
 Sym= A
 Ene=               9
 Spin= Alpha
 Occup=    0.00000
   1    1.4516069550644e-05
   2    -0.0049561967533575
   3    -0.010249800760089
   4    -0.0017482857977407
   5    7.2712168673962e-07
   6     0.039621851661108
   7     -0.13997158854839
   8    8.8329934434963e-07
   9     0.011230860531471
  10     -0.20831797333053
  11    4.7982593991463e-07
  12    0.00031467067689225
  13     -0.34238572596608
  14    0.0023490289546925
  15    -4.7712063457582e-14
  16    0.0090063564654952
  17    0.0016346533548336
  18    4.4283141366011e-08
  19    -0.0035047162084597
  20    -1.3681344381501e-13
  21     0.013367202048716
  22    -0.0020860383589914
  23    -2.9263503482779e-09
  24    1.3425049737628e-05
  25    -0.0049594820892198
  26    -0.010204516810245
  27    -0.0017421911881629
  28    -7.2743437249939e-07
  29    -0.039621903930595
  30     -0.10814189149365
  31    -8.8350106843642e-07
  32     -0.01114544785518
  33     -0.19768526916338
  34    -4.7983571867329e-07
  35    -0.00028724693478327
  36      -0.3513111454926
  37    0.0023487791628987
  38    -2.6798438820712e-14
  39    -0.012872270651142
  40    0.0016331284085256
  41    4.4260059384018e-08
  42    -0.0035165452796446
  43    -7.5937632196772e-14
  44    -0.0031987230572936
  45    -0.0021000430442348
  46    -2.9266386438032e-09
  47    0.0017849101231674
  48      0.21660764818944
  49       1.4282659611302
  50    3.109547743643e-08
  51    0.0058443581714184
  52    0.0058591607818438
  53    3.8069029251576e-08
  54    -0.045463764622572
  55    -0.0058847665030318
  56     0.027518874541998
  57      0.24683066016805
  58        1.434527082213
  59    -3.1107766491528e-08
  60    -0.0046739713608844
  61    0.0050637527826024
  62    -3.8069564322631e-08
  63     0.047110390809879
  64    -0.012016815954821
  65     0.027082783919845
  66     -0.19703814983701
  67      -1.4274517492517
  68    3.1095489179853e-08
  69    -0.005135419690352
  70    0.0080582055670095
  71    3.8068735494419e-08
  72     0.039203743361462
  73    -0.0049216684056016
  74    0.0013484791248281
  75     -0.22716461112048
  76      -1.4336236780239
  77    -3.1107771446459e-08
  78    0.0039633585904744
  79    0.0072618864818827
  80    -3.8069841253559e-08
  81    -0.040831641835812
  82    -0.011029713031122
 Sym= A
 Ene=              10
 Spin= Alpha
 Occup=    0.00000
   1    2.8043529230623e-06
   2    -0.00081780863776016
   3    -0.0017835516168674
   4    -0.0005557117419905
   5    -4.1251787942662e-08
   6    0.0063317509650921
   7     -0.12425465672484
   8    -5.0114145266955e-08
   9     0.001797514072356
  10     -0.20392608930916
  11    -2.7224111557749e-08
  12    -3.7073203393244e-05
  13     -0.34883793991253
  14    0.0003780367963274
  15    5.4290889503921e-15
  16     0.011056601208402
  17    0.00026469885671381
  18    -2.5127862985135e-09
  19    -0.00056075285406593
  20    1.197455981137e-14
  21    0.0081689693622673
  22    -0.00032567423431273
  23    1.6600985074196e-10
  24    1.7624223251507e-06
  25    -0.00082164229130298
  26    -0.0017392351554193
  27    -0.00054878030294211
  28    4.1276277605074e-08
  29    -0.0063311824716439
  30     -0.12520586381753
  31    5.0129931937756e-08
  32    -0.0017123059637466
  33     -0.20427541971117
  34    2.7224853956054e-08
  35    6.4842861181787e-05
  36     -0.34861368358062
  37    0.00037777868862346
  38    7.6830181914285e-16
  39    -0.010940474353658
  40    0.00026319147290233
  41    -2.5109454013476e-09
  42    -0.00057231431275103
  43    5.5121918763434e-15
  44    -0.0084871526564889
  45    -0.00033955484285747
  46    1.6607553763016e-10
  47    0.0029156010763327
  48      0.22517557157897
  49       1.4389936538306
  50    -1.7641571443912e-09
  51    0.0049700543878208
  52    0.0064111579473242
  53    -2.1599562895029e-09
  54    -0.043912851956628
  55    -0.0086783410305873
  56    0.0021461214762847
  57      0.22433308127394
  58       1.4389580032481
  59    1.7651088704873e-09
  60    -0.0050057877354782
  61    0.0064349963572543
  62    2.1599667708257e-09
  63     0.043881646349675
  64    -0.0085043562274834
  65    0.0017109322450667
  66     -0.22193645939349
  67      -1.4385123067593
  68    -1.7641576760669e-09
  69    -0.0048568594649058
  70     0.006758196273463
  71    -2.1599261535412e-09
  72     0.042899600244171
  73    -0.0085254968447824
  74    0.0024789131058633
  75     -0.22099784236632
  76       -1.438386857741