[Molden Format]
made by pyscf v[2.13.1]
[Atoms] (AU)
C   1   6     0.52305432123130    -2.22447460350445     0.00003177974798
C   2   6    -1.88390110514574    -1.38878353843250    -0.00002818528837
C   3   6    -1.88377710424092     1.38895723957332    -0.00002234770715
C   4   6     0.52325246951722     2.22443244857104     0.00004055345357
C   5   6     2.28534660199030    -0.00009947884167     0.00010220171035
H   6   1     1.14276519593111    -4.18477862896045     0.00004216664809
H   7   1    -3.57619885468738    -2.55926587634621    -0.00006873508863
H   8   1    -3.57597159313937     2.55958890282995    -0.00005836789129
H   9   1     1.14314087112612     4.18467999740482     0.00005871147736
H   10   1     3.53272380083982    -0.00015749942100     1.66857490131920
H   11   1     3.53293742554499    -0.00015085092116    -1.66820486703393
[GTO]
1 0
 s    8 1.00
                  6665  0.00069158396281299
                  1000  0.0053257961529341
                   228   0.027060721042034
                 64.71    0.10165684614077
                 21.06     0.2745748236174
                 7.495    0.44829431892377
                 2.797    0.28490261071525
                0.5215   0.015194859206082
 s    8 1.00
                  6665  -0.00029326965268655
                  1000  -0.0023180354739745
                   228  -0.011499786038565
                 64.71  -0.046826727009787
                 21.06   -0.12846616875047
                 7.495   -0.30126627246289
                 2.797   -0.25563070233011
                0.5215      1.093793361012
 s    1 1.00
                0.1596                   1
 s    1 1.00
                0.0469                   1
 p    3 1.00
                 9.439   0.056979251590039
                 2.002    0.31320721150073
                0.5456    0.76037674173753
 p    1 1.00
                0.1517                   1
 p    1 1.00
               0.04041                   1
 d    1 1.00
                  0.55                   1
 d    1 1.00
                 0.151                   1

2 0
 s    8 1.00
                  6665  0.00069158396281299
                  1000  0.0053257961529341
                   228   0.027060721042034
                 64.71    0.10165684614077
                 21.06     0.2745748236174
                 7.495    0.44829431892377
                 2.797    0.28490261071525
                0.5215   0.015194859206082
 s    8 1.00
                  6665  -0.00029326965268655
                  1000  -0.0023180354739745
                   228  -0.011499786038565
                 64.71  -0.046826727009787
                 21.06   -0.12846616875047
                 7.495   -0.30126627246289
                 2.797   -0.25563070233011
                0.5215      1.093793361012
 s    1 1.00
                0.1596                   1
 s    1 1.00
                0.0469                   1
 p    3 1.00
                 9.439   0.056979251590039
                 2.002    0.31320721150073
                0.5456    0.76037674173753
 p    1 1.00
                0.1517                   1
 p    1 1.00
               0.04041                   1
 d    1 1.00
                  0.55                   1
 d    1 1.00
                 0.151                   1

3 0
 s    8 1.00
                  6665  0.00069158396281299
                  1000  0.0053257961529341
                   228   0.027060721042034
                 64.71    0.10165684614077
                 21.06     0.2745748236174
                 7.495    0.44829431892377
                 2.797    0.28490261071525
                0.5215   0.015194859206082
 s    8 1.00
                  6665  -0.00029326965268655
                  1000  -0.0023180354739745
                   228  -0.011499786038565
                 64.71  -0.046826727009787
                 21.06   -0.12846616875047
                 7.495   -0.30126627246289
                 2.797   -0.25563070233011
                0.5215      1.093793361012
 s    1 1.00
                0.1596                   1
 s    1 1.00
                0.0469                   1
 p    3 1.00
                 9.439   0.056979251590039
                 2.002    0.31320721150073
                0.5456    0.76037674173753
 p    1 1.00
                0.1517                   1
 p    1 1.00
               0.04041                   1
 d    1 1.00
                  0.55                   1
 d    1 1.00
                 0.151                   1

4 0
 s    8 1.00
                  6665  0.00069158396281299
                  1000  0.0053257961529341
                   228   0.027060721042034
                 64.71    0.10165684614077
                 21.06     0.2745748236174
                 7.495    0.44829431892377
                 2.797    0.28490261071525
                0.5215   0.015194859206082
 s    8 1.00
                  6665  -0.00029326965268655
                  1000  -0.0023180354739745
                   228  -0.011499786038565
                 64.71  -0.046826727009787
                 21.06   -0.12846616875047
                 7.495   -0.30126627246289
                 2.797   -0.25563070233011
                0.5215      1.093793361012
 s    1 1.00
                0.1596                   1
 s    1 1.00
                0.0469                   1
 p    3 1.00
                 9.439   0.056979251590039
                 2.002    0.31320721150073
                0.5456    0.76037674173753
 p    1 1.00
                0.1517                   1
 p    1 1.00
               0.04041                   1
 d    1 1.00
                  0.55                   1
 d    1 1.00
                 0.151                   1

5 0
 s    8 1.00
                  6665  0.00069158396281299
                  1000  0.0053257961529341
                   228   0.027060721042034
                 64.71    0.10165684614077
                 21.06     0.2745748236174
                 7.495    0.44829431892377
                 2.797    0.28490261071525
                0.5215   0.015194859206082
 s    8 1.00
                  6665  -0.00029326965268655
                  1000  -0.0023180354739745
                   228  -0.011499786038565
                 64.71  -0.046826727009787
                 21.06   -0.12846616875047
                 7.495   -0.30126627246289
                 2.797   -0.25563070233011
                0.5215      1.093793361012
 s    1 1.00
                0.1596                   1
 s    1 1.00
                0.0469                   1
 p    3 1.00
                 9.439   0.056979251590039
                 2.002    0.31320721150073
                0.5456    0.76037674173753
 p    1 1.00
                0.1517                   1
 p    1 1.00
               0.04041                   1
 d    1 1.00
                  0.55                   1
 d    1 1.00
                 0.151                   1

6 0
 s    3 1.00
                 13.01   0.033498726389998
                 1.962    0.23480080117413
                0.4446     0.8136829578829
 s    1 1.00
                 0.122                   1
 s    1 1.00
               0.02974                   1
 p    1 1.00
                 0.727                   1
 p    1 1.00
                 0.141                   1

7 0
 s    3 1.00
                 13.01   0.033498726389998
                 1.962    0.23480080117413
                0.4446     0.8136829578829
 s    1 1.00
                 0.122                   1
 s    1 1.00
               0.02974                   1
 p    1 1.00
                 0.727                   1
 p    1 1.00
                 0.141                   1

8 0
 s    3 1.00
                 13.01   0.033498726389998
                 1.962    0.23480080117413
                0.4446     0.8136829578829
 s    1 1.00
                 0.122                   1
 s    1 1.00
               0.02974                   1
 p    1 1.00
                 0.727                   1
 p    1 1.00
                 0.141                   1

9 0
 s    3 1.00
                 13.01   0.033498726389998
                 1.962    0.23480080117413
                0.4446     0.8136829578829
 s    1 1.00
                 0.122                   1
 s    1 1.00
               0.02974                   1
 p    1 1.00
                 0.727                   1
 p    1 1.00
                 0.141                   1

10 0
 s    3 1.00
                 13.01   0.033498726389998
                 1.962    0.23480080117413
                0.4446     0.8136829578829
 s    1 1.00
                 0.122                   1
 s    1 1.00
               0.02974                   1
 p    1 1.00
                 0.727                   1
 p    1 1.00
                 0.141                   1

11 0
 s    3 1.00
                 13.01   0.033498726389998
                 1.962    0.23480080117413
                0.4446     0.8136829578829
 s    1 1.00
                 0.122                   1
 s    1 1.00
               0.02974                   1
 p    1 1.00
                 0.727                   1
 p    1 1.00
                 0.141                   1

[5d]
[7f]
[9g]

[MO]
 Sym= A
 Ene=               0
 Spin= Alpha
 Occup=    1.00000
   1    -0.0019033786702699
   2    -0.010211364683376
   3     0.017165035292012
   4     -0.26411921773125
   5     -0.20081150776993
   6     -0.23956764371439
   7    -1.0756673226544e-05
   8     0.011249377893049
   9     0.032673720682794
  10    -1.7040660324931e-06
  11      0.01357014570394
  12    -0.030473294011126
  13    -3.5537136387185e-07
  14    3.3931383239204e-05
  15    -4.5964078671981e-07
  16    -5.9712960575978e-07
  17    -0.013743080208261
  18    -0.016962865947462
  19    0.00030197711374719
  20    4.1357627950673e-07
  21    2.492829384931e-06
  22    0.0033117209633481
  23     0.085049829688313
  24    0.0018753335118056
  25      -0.0240617613061
  26    0.00081676119629647
  27      0.30123569444722
  28      0.12679869229364
  29    -0.010805854922912
  30    5.4404075234465e-07
  31     0.035501864985412
  32     -0.13957771887899
  33    -9.1076251227651e-07
  34     0.053880584492286
  35     0.010307435420905
  36    1.557111125641e-06
  37    -0.00033773880646236
  38    -5.2862053573196e-07
  39    -3.5501026856862e-07
  40    -0.010959810707815
  41     -0.02389997044796
  42    0.0062458085311541
  43    7.0826193892844e-07
  44    6.3478189147865e-07
  45     0.041075994195561
  46     0.039447827129794
  47    -0.0018753409531901
  48     0.024060684887448
  49    -0.00082422781406211
  50     -0.30123755302508
  51     -0.12680077848536
  52     -0.01078737866041
  53    -6.0535098528303e-07
  54    -0.035516034035197
  55     -0.13957177398442
  56    3.3263285260037e-07
  57    -0.053880024287565
  58     0.010312787673227
  59    -1.5038736603906e-06
  60    0.00033772163335879
  61    4.328906097947e-07
  62    -3.9890375625012e-07
  63     0.010956012269843
  64    -0.023902158127988
  65    -0.0062458508958042
  66    -5.5014212623486e-07
  67    8.5603568442264e-07
  68    -0.041070696874174
  69     0.039455558436776
  70    0.0019033838279758
  71     0.010211649481685
  72    -0.017161762242952
  73      0.26412324685967
  74      0.20078952767283
  75     -0.23958919700516
  76    9.7871415260508e-06
  77    -0.011249517642393
  78     0.032673985497373
  79    1.8276090938651e-06
  80    -0.013572642399465
  81    -0.030472787132515
  82    2.3630193494964e-07
  83    -3.3947206866614e-05
  84    3.9590803100514e-07
  85    -6.5179348647038e-07
  86     0.013740137241264
  87    -0.016965801100547
  88    -0.00030208126186081
  89    -7.2640945194206e-08
  90    2.4976483261391e-06
  91    -0.003296657912047
  92     0.085052627722931
  93    -1.3890783754892e-08
  94    7.6706517160165e-07
  95    3.4859730091199e-06
  96    -2.0978941400732e-06
  97    1.4677635665653e-05
  98      0.38487294297362
  99    7.8783413297933e-07
 100    1.5827077541514e-05
 101      0.40785518041317
 102    8.0994053660286e-07
 103    1.2275427813758e-07
 104    -0.00010994091634761
 105    1.3125466999039e-08
 106    -4.1345810572841e-08
 107    -3.2359558055636e-08
 108    -2.3648623762116e-07
 109    -1.5104646662016e-06
 110    -0.017680252297994
 111    1.0124690406283e-07
 112    -1.1238679446471e-07
 113    -2.3039478234872e-06
 114    -5.5637237723519e-06
 115    -0.057640547355868
 116      0.16422266419306
 117       0.2628588449239
 118    0.0061567026970154
 119    -0.0077365521039692
 120    0.0019919475624217
 121    -3.5997959562243e-07
 122    0.0040796667856661
 123     0.054855175573806
 124    3.3048282127642e-07
 125     -0.12853749940601
 126     -0.26159522674348
 127    -0.0025426200143655
 128    -0.00076456969132627
 129    -0.0030849432540797
 130    -1.1584231856142e-07
 131    -0.049687547584294
 132    -0.033235123374207
 133    -1.3279095689816e-06
 134      0.12854174691345
 135      0.26159910433505
 136    0.0025427533753892
 137    0.00076447081447087
 138    -0.0030849747859439
 139    1.0269877690745e-07
 140     0.049684792417467
 141    -0.033240314114415
 142    1.1946726966373e-06
 143     -0.16422593202023
 144     -0.26286340770671
 145    -0.0061568596973484
 146    0.0077367790839712
 147    0.0019913253621525
 148    3.6749993266656e-07
 149    -0.0040748765365664
 150     0.054856382208652
 151    -1.1150031816723e-07
 152    -7.7445358017326e-07
 153    3.7029087324804e-07
 154    -4.1171234416594e-08
 155    4.7015365545441e-07
 156     0.011358512267715
 157    6.6910920750294e-08
 158    -2.2482841339322e-07
 159    -0.0044578586411743
 160    -2.8147681786994e-07
 161    -8.1492506837309e-07
 162    3.4831669782747e-07
 163    -2.0023342973397e-08
 164    4.7114125030315e-07
 165     0.011358311987507
 166    -2.160995535929e-08
 167    -2.2416396111648e-07
 168    -0.0044580832707451
 169    2.6262920513071e-07
 Sym= A
 Ene=               1
 Spin= Alpha
 Occup=    1.00000
   1    0.0015520387898456
   2    -0.034504757249912
   3      0.08689142316461
   4      0.26781295885945
   5      0.22401217884488
   6      0.17351136165086
   7    6.3165762091218e-06
   8    -0.086917438106272
   9       0.0510078650701
  10    -2.4427621452998e-06
  11     0.012087990475034
  12     0.071616148675659
  13    1.1897493337766e-06
  14    -0.002014242341083
  15    -7.6969128759327e-07
  16    1.5368264691583e-07
  17    -0.016422486934466
  18     0.016998446808386
  19    -0.015793190822173
  20    3.263966506498e-07
  21    -3.6558519267359e-06
  22     0.021502056553466
  23     -0.11584903012104
  24    0.0014227368285259
  25    -0.068300763212571
  26     -0.33198346794242
  27      -0.1282978367606
  28     -0.20391402319951
  29    -0.0096152348603045
  30    -2.627349262286e-06
  31     -0.15148659498654
  32    0.0017026564112429
  33    -2.1571839776724e-06
  34     -0.04571220746279
  35    -0.021965785693671
  36    -7.8397076276669e-07
  37    -0.0009119701717062
  38    2.5098420620509e-07
  39    9.7075826028151e-08
  40    0.0087979231592031
  41    0.0088270746743053
  42    -0.0026608200034115
  43    -6.6890759247827e-07
  44    -1.4468394205121e-07
  45    -0.030412622052419
  46    -0.016636825380314
  47    0.0014227092209103
  48    -0.068298665241375
  49     -0.33198026115205
  50      -0.1282979524709
  51     -0.20391084443868
  52    0.0096347006129361
  53    -6.7327825857048e-06
  54     -0.15148677978657
  55    -0.0016878682327938
  56    -4.8352489790567e-06
  57     -0.04571009468068
  58     0.021970018323667
  59    -1.1720430436006e-06
  60    -0.00091195924216428
  61    -9.1303922635822e-08
  62    -4.4555818172537e-07
  63    0.0087963723852151
  64    -0.0088283290471465
  65    -0.0026606288320989
  66    -6.0105641391603e-07
  67    2.3267067948704e-07
  68     -0.03041012909602
  69     0.016642811740291
  70    0.0015520199166757
  71    -0.034505123496842
  72     0.086892445844612
  73      0.26781228685704
  74      0.22399157982285
  75     -0.17353013889698
  76    -3.971118570868e-07
  77    -0.086922432574521
  78    -0.051001597518257
  79    -6.5411593445247e-06
  80     0.012081221277167
  81    -0.071617164584278
  82    1.1975698295775e-07
  83    -0.0020142400666736
  84    -6.2178079545935e-07
  85    -2.0179196462627e-08
  86    -0.016425540742633
  87    -0.016995274800395
  88    -0.015793223828166
  89    9.3783409548366e-07
  90    3.5800768188571e-06
  91     0.021522140625905
  92      0.11584460235665
  93    -0.0035347333962071
  94      0.13636880806307
  95      0.48054459649861
  96     -0.24358026790391
  97      -0.3397162687458
  98    1.2216622253367e-05
  99    -2.5100538891165e-05
 100     -0.22463990325864
 101    7.4370147873391e-06
 102    -1.7714101087179e-05
 103     0.023491449810032
 104    -1.0425756654442e-06
 105    1.2860805459341e-06
 106    -0.010509384842823
 107    3.019993781694e-07
 108    -1.808386460656e-07
 109    -0.011604746572589
 110    1.1171063209124e-06
 111     0.047455692499294
 112    -5.4966367285902e-06
 113    -3.4451094142993e-07
 114    -0.041673212465183
 115    4.0612121219074e-06
 116     -0.10038070171058
 117    -0.090308009512636
 118     0.024293924007488
 119    0.0088264356005701
 120    -0.0049643707405485
 121    2.2957161259026e-07
 122    -0.032472953963374
 123    -0.017530807690937
 124    -1.0503227592349e-06
 125      0.12726598551401
 126       0.1118953242249
 127     -0.01166523453395
 128    0.0004567676081606
 129    0.0033377199206873
 130    1.2622721424665e-07
 131     0.014379964672686
 132    0.0096138672329043
 133    4.8307193934802e-07
 134      0.12726578721462
 135      0.11189364872916
 136    -0.011665473228535
 137    0.00045659488194365
 138    -0.0033377621566468
 139    -4.9853675325159e-08
 140     0.014378556679892
 141    -0.0096149307489781
 142    3.3031779739181e-07
 143     -0.10038079439242
 144    -0.090306744040054
 145     0.024294085045459
 146    0.0088267703965491
 147    0.0049636321307422
 148    7.3470668693119e-09
 149    -0.032471160982039
 150     0.017533237551309
 151    -1.1442939965188e-06
 152     -0.12312712383374
 153    -0.078015184503225
 154    -0.017539446857244
 155    -0.005234589019655
 156    1.4473741231328e-07
 157    0.0048585933501511
 158     0.024048720010964
 159    -9.5822351373353e-07
 160     -0.01397655261913
 161     -0.12312104106901
 162    -0.078018688840743
 163    -0.017537800446231
 164    -0.0052338681007284
 165    1.6838671840204e-07
 166    -0.0048591745622787
 167      0.02405152085858
 168    -1.0505593714072e-06
 169     0.013977621711035
 Sym= A
 Ene=               2
 Spin= Alpha
 Occup=    1.00000
   1    5.9549206872012e-08
   2    -1.2585239926003e-06
   3    -1.0679609478113e-05
   4    1.9436019836085e-06
   5    -1.3718758576039e-05
   6    -6.7173516156601e-06
   7      0.35252718775213
   8    -1.6501761623325e-06
   9    -4.8562817626372e-06
  10      0.23092321232219
  11    -4.9813340489146e-06
  12    -8.7546100790157e-07
  13     0.045568012072566
  14    -3.8823362885551e-07
  15    -0.012499051669833
  16    0.0031735219208327
  17    1.7774119961766e-07
  18    -4.2124393832486e-07
  19    -1.4606315275156e-07
  20    -0.0091545747485687
  21    -0.0038701732620185
  22    -2.6751395345051e-07
  23    3.6269651262417e-06
  24    1.9408156858998e-09
  25    -8.6231824976807e-07
  26    2.4255512218024e-06
  27    -3.4378742135084e-06
  28    -3.4988372815088e-06
  29    -3.419194258629e-07
  30      0.24467493527026
  31    3.557635866543e-06
  32    -5.8290559658045e-06
  33       0.1575819513981
  34    -3.3256151278691e-06
  35    2.0993251717499e-06
  36     0.028903133048588
  37    7.5878773179783e-07
  38     0.018318542467268
  39    -0.018778478261281
  40    -8.8510455036872e-07
  41    3.2876415477622e-08
  42    -1.1047321245399e-07
  43    -0.0014963345223671
  44    -0.0042188781964897
  45    3.4660657507331e-06
  46    7.655239617634e-07
  47    -2.606007298628e-08
  48    1.9923599715579e-06
  49    3.1418080807764e-06
  50    5.6003103230575e-06
  51    6.9680676009373e-06
  52    5.6498261959055e-07
  53     -0.24467462514509
  54    -9.8156330535642e-07
  55    -5.120815218847e-06
  56     -0.15758180347153
  57    4.1039530223079e-06
  58    1.8445561309591e-06
  59    -0.028903085393444
  60    -8.7113873061348e-07
  61    -0.018320240232046
  62    -0.018776851864689
  63    6.6039968161298e-07
  64    2.5232169572144e-07
  65    1.2904783231009e-07
  66     0.001495964288727
  67    -0.0042190467044278
  68    -2.9797898999116e-06
  69    4.8197506555674e-07
  70    -8.6064874149124e-08
  71    1.8796130738581e-06
  72     9.28172832079e-06
  73    -6.5164100930064e-06
  74    9.8206561745442e-06
  75    -2.3842181545557e-06
  76     -0.35252724230067
  77    3.0917672529988e-06
  78    -3.1043100548953e-06
  79     -0.23092312248607
  80    4.7641744848856e-06
  81    5.338556908409e-07
  82    -0.045568012299273
  83    4.3996540289837e-07
  84     0.012499283127503
  85    0.0031724376488825
  86    1.1961098162756e-07
  87    -1.8502409917993e-07
  88    3.8311963129227e-07
  89    0.0091540908461065
  90    -0.003871058402272
  91    -1.2679783952457e-07
  92    1.6206030463721e-06
  93    3.1124804022227e-08
  94    -1.1706878374855e-06
  95    -4.1084513046752e-06
  96    2.1042822332047e-06
  97    2.8835189701684e-06
  98    4.1465240094941e-06
  99    -6.8912089064108e-07
 100    1.9253691390186e-06
 101    4.1358701131055e-06
 102    -1.6967190776508e-07
 103    -2.0630150942277e-07
 104    -2.2190334795341e-06
 105    4.4856620798177e-08
 106    -6.1493283818198e-09
 107    -1.29105465684e-06
 108    -0.028071789158558
 109    4.6089727494354e-08
 110    7.9633854454902e-07
 111    -4.9879703020002e-07
 112    -1.2040406382846e-06
 113    -0.028956797282282
 114    2.9383723493069e-07
 115    1.6695804582497e-06
 116    3.2223235485801e-06
 117    2.4497207099565e-06
 118    7.2587348910626e-07
 119    -5.6676008100116e-07
 120    -2.0062206242914e-08
 121      0.01419721993742
 122    5.0797354171626e-07
 123    2.7871073086509e-07
 124     0.010421312219454
 125    -2.7347743422225e-06
 126    -3.0157937016882e-06
 127    -8.8952431529632e-07
 128    -2.4773668339955e-07
 129    -7.1326678601733e-08
 130    0.0096010796273409
 131    -8.4494850469917e-08
 132    -6.5702329544964e-07
 133    0.0055595923112645
 134    6.1830231594666e-07
 135    1.1557730055589e-06
 136    1.0920223965564e-06
 137    2.4238914840222e-07
 138    2.4426838982005e-08
 139    -0.0096010656230113
 140    -1.5962240466389e-07
 141    -4.758487184343e-07
 142    -0.0055595331008685
 143    -1.541769339044e-06
 144    -9.4709856017868e-07
 145    -1.1500759712255e-06
 146    4.1389612104765e-07
 147    -4.8129017491221e-08
 148    -0.014197219318362
 149    4.5817037866152e-08
 150    2.256727501163e-08
 151    -0.010421242197205
 152    4.9502994772615e-07
 153    2.9075739015023e-07
 154    8.5204130872816e-08
 155    5.436904040863e-08
 156    -0.00029077341719963
 157    -3.6745983767548e-08
 158    -1.4419018067453e-07
 159    0.0013551608469684
 160    1.5494919688484e-07
 161    1.5883027581766e-06
 162    1.0288804723532e-06
 163    2.1968209101963e-07
 164    3.5341194705041e-08
 165    0.00029062239567888
 166    4.5258328032204e-08
 167    -2.6315992689617e-07
 168    -0.0013556109841138
 169    -8.8241113417776e-08
 Sym= A
 Ene=               3
 Spin= Alpha
 Occup=    1.00000
   1    -2.5478128518334e-07
   2    9.4525556478184e-06
   3    1.4661499509745e-05
   4    1.0735148119415e-07
   5    -7.9148804807963e-06
   6    -1.2490493013213e-06
   7      0.19418073473303
   8    -1.6229252306328e-05
   9    -2.8439245247839e-06
  10       0.1109305681454
  11    2.3747092958882e-06
  12    2.0822121390805e-06
  13     0.010228235120836
  14    -1.1669468984536e-06
  15    -0.022387303076232
  16    0.0054621000766279
  17    4.4743947475485e-07
  18    -4.5718172042628e-07
  19    -5.4171262424635e-07
  20    -0.0072370862529569
  21    0.0059174057760777
  22    6.619410897834e-06
  23    -2.8275011835233e-06
  24    -3.8813139794149e-07
  25    1.3734630957582e-06
  26    -1.8148833474984e-05
  27    3.0923678097994e-06
  28    -3.8588469740125e-06
  29    -8.4313595994156e-06
  30      0.33271652742046
  31    -1.1211693939905e-05
  32    3.1857166594684e-06
  33      0.18368945146962
  34    -7.0602729709443e-07
  35    -2.3760921137603e-06
  36     0.012865063183271
  37    3.5202837385286e-07
  38     0.011481629816302
  39     0.014036391796923
  40    2.8715791306137e-07
  41    -3.181178730116e-07
  42    -1.1786379934336e-07
  43    0.0054063252968735
  44    0.0045557787100211
  45    -1.6284543953978e-06
  46    2.746805543078e-06
  47    -3.8215839046786e-07
  48    1.0898195661832e-06
  49    -1.8374878137315e-05
  50    3.0538401099131e-06
  51    -3.8481480020824e-06
  52    6.8868484602065e-06
  53      0.33271691682606
  54    -1.0846118878563e-05
  55    -3.8232016729791e-06
  56       0.1836896657642
  57    -8.5383254360103e-07
  58    2.2808680714541e-06
  59     0.012865081459392
  60    2.4221568876991e-07
  61     0.011480408207951
  62    -0.014037393942426
  63    2.1441392666538e-07
  64    2.7312029491068e-07
  65    -1.7935111728532e-07
  66    0.0054058732611784
  67    -0.0045562811006414
  68    -1.4481601749031e-06
  69    -2.9659896355775e-06
  70    -2.4502146514867e-07
  71    9.4505445714516e-06
  72    1.4368504111244e-05
  73    2.3764681626537e-07
  74    -7.5941038643426e-06
  75    5.5647130262745e-07
  76      0.19418128362676
  77    -1.6017384314808e-05
  78    2.6524123917503e-06
  79       0.1109308420044
  80    2.2930355489101e-06
  81    -2.1421439260999e-06
  82     0.010228295194394
  83    -1.1947227091097e-06
  84    -0.022387826245096
  85    -0.005460110498344
  86    4.0732787963238e-07
  87    5.3875461194826e-07
  88    -5.6985383636693e-07
  89    -0.0072376733210356
  90    -0.0059167239754734
  91    6.6703296283088e-06
  92    2.7420111099942e-06
  93    -3.3986856103084e-07
  94    -9.5881816653561e-06
  95    1.7333472485018e-05
  96    -7.4865832905394e-06
  97    -7.7646840299522e-06
  98    3.2647814251667e-07
  99     -0.11817085816266
 100    -1.3807843736354e-05
 101    -2.9222501841883e-11
 102    0.0015604688702488
 103    -2.0328440904093e-06
 104    3.6247724634709e-08
 105    0.0011877713573175
 106    -3.0667524134849e-06
 107    -0.025448588413104
 108    1.143436684519e-06
 109    9.6874624079082e-07
 110    4.8428721478354e-08
 111    5.6213707303596e-06
 112     0.020622873587982
 113    -8.3510293561047e-07
 114    -6.7184961497987e-07
 115    -4.2064360880675e-08
 116    5.053457724153e-06
 117    5.2246035935551e-06
 118    4.3684171638022e-07
 119    -3.8161554885018e-07
 120    3.7966536647428e-07
 121    0.0075877856356608
 122    -1.4615993418023e-06
 123    4.8081473952531e-07
 124     0.006084778665205
 125    2.4384807191178e-06
 126    -1.3688081211257e-06
 127    -2.3627488275036e-07
 128    -2.0019584646089e-08
 129    -8.8070943542953e-08
 130     0.012993133596729
 131    -6.2377415325831e-07
 132    3.7934446644151e-07
 133    0.0093892275597671
 134    2.1586409720838e-06
 135    -1.563685169743e-06
 136    -3.0584572166445e-07
 137    -4.1740221862493e-08
 138    4.5390935916918e-08
 139     0.012993146248995
 140    -5.9989643451078e-07
 141    -4.0257902100065e-07
 142    0.0093892182892212
 143    5.1973119055525e-06
 144    5.2861384725075e-06
 145    4.7270911310192e-07
 146    -3.7589004585508e-07
 147    -4.1781886068211e-07
 148    0.0075878094601638
 149    -1.4558166151068e-06
 150    -4.9461598934899e-07
 151    0.0060847835484226
 152     -0.12932598375887
 153     -0.18143517210144
 154    -0.016302709661709
 155    0.0031475630741046
 156    -1.362013657657e-07
 157    -0.00034166781599985
 158     0.015881683825013
 159    -7.7720777845422e-07
 160     0.027727550441273
 161      0.12930006451405
 162      0.18142124364586
 163     0.016302753858332
 164    -0.0031469514355768
 165    1.4244192295596e-07
 166    -0.00034418887707403
 167     -0.01588081919076
 168    6.506515912831e-07
 169     0.027725029818489
 Sym= A
 Ene=               4
 Spin= Alpha
 Occup=    1.00000
   1    0.0016521079675762
   2     0.069004371647278
   3      0.10415089817354
   4     -0.23920764895932
   5     0.073784138650389
   6     0.069801959834417
   7    2.1310073775067e-06
   8    -0.023193829647942
   9    -0.0061655573010586
  10    6.008119684302e-08
  11     0.032597878643995
  12    -0.042957773619743
  13    4.9359061928216e-07
  14    0.0027512378870171
  15    -1.9758365127054e-07
  16    6.315756933162e-08
  17    -0.0058630352180586
  18    0.00020260656759304
  19    0.0022429947400148
  20    8.3608826984548e-07
  21    1.3218971230343e-06
  22     0.032813609978238
  23      0.03536958411242
  24    0.0090926524851273
  25     -0.18591682191257
  26      -0.2224828872569
  27      0.45571964262272
  28      0.16954556072979
  29      0.12858148652328
  30    4.1731771821152e-06
  31     0.035761240103366
  32    -0.096801024846928
  33    2.0591229658317e-08
  34      0.03759802936171
  35     0.047830676610853
  36    1.3199740166529e-06
  37    0.00083334462711903
  38    -9.3835060634259e-08
  39    -2.7538584729373e-07
  40     -0.00297987730433
  41    -0.013434707276914
  42    -0.0020928714894417
  43    1.3864426247412e-06
  44    2.666345237967e-06
  45     0.066885827739293
  46      0.13032422425516
  47    -0.0090929865493031
  48      0.18591816264629
  49       0.2224768026446
  50      -0.4557211271063
  51     -0.16953578243607
  52      0.12861894370852
  53    -3.2994191390376e-06
  54    -0.035767936871237
  55    -0.096790833999521
  56    -2.3237094244243e-07
  57    -0.037592815953627
  58     0.047833951327721
  59    -1.0886709550205e-06
  60    -0.00083334265580401
  61    5.2725594665951e-08
  62    -2.99625312341e-07
  63    0.0029782824337824