   This run of MOLCAS is using the pymolcas driver

                             OPE
                             OPE          NMOL  CASOP  ENMOLC A   SO
                 OPE        NMOLC        AS  OP EN  MO LC     AS  OP
                OPENM       OL CA        SO  PE NM  OL CA     SOP EN
                OP EN      MO   LC       AS  OP ENMOL  CASO   PENMOL
                OP  EN     MO   LC       AS  OP EN     MO     LC ASO
               OP   E  NMOL  C  AS       OP  EN MO     LC     AS  OP
               OP  E   NMO   LC AS        OPEN  MO     LCASOP EN   M
               O  PEN   MO  LCA  SO
            OPE   NMO   L   CAS    OP
        OPENMOL  CASOP     ENMOL   CASOPE
     OPENMOLCA   SOPENMOLCASOPEN   MOLCASOPE
    OPENMOLCAS   OP           EN   MOL    CAS
    OPENMOLCAS       OP  ENM        O     LCA
    OPENMOLCAS    OPEN  MOLCASO     P  E  NMO
    OPENMOLCAS     OP               E  N  MOL
    OPENMOLCA   SO           PENM   O  L  CAS    OPEN    MO    LCAS
    OPENMOLCA   SOP           ENM   O  L  CAS   OP  EN  MOLC  AS   O
    OPENMOLCA   SOPE           NM      O  LCA   S      OP  EN MO
    OPENMOLC                AS         O  PEN   M      OL  CA  SOPE
    OPENMO        LCASOPE  NMOL        C  ASO   P      ENMOLC     AS
    OPE     NMO      LCA  SO     P     E   NM   OL  CA SO  PE N   MO
          OPENMOLCA            SOPE   NMO        LCAS  O    P  ENMO
     OPENMOLCASOPENMOLCASOPENMOLCASOPENMOLCA
        OPENMOLCASOPENMOLCASOPENMOLCASOPE
            OPENMOLCASOPENMOLCASOPENM
               OPENMOLCASOPENMOLCA        version: 21.10
                   OPENMOLCASO
                       OPE                tag: 287-g40fddb0ff

 OpenMolcas is free software; you can redistribute it and/or modify it
 under the terms of the GNU Lesser General Public License version 2.1.
 OpenMolcas is distributed in the hope that it will be useful, but it
 is provided "as is" and without any express or implied warranties.
 For more details see the full text of the license in the file
 LICENSE or in <http://www.gnu.org/licenses/>.

                 Copyright (C) The OpenMolcas Authors
           For the author list and the recommended citation,
                   consult the file CONTRIBUTORS.md

           *************************************************
           * pymolcas version py2.21                       *
           *   build 7e143f0cd7e3057537d1d99ac8f53503      *
           *   (after the EMIL interpreter by V. Veryazov) *
           *************************************************

configuration info
------------------
Host name: login03 (Linux)
C Compiler ID: Intel
C flags: -std=gnu99 -gcc-sys
Fortran Compiler ID: Intel
Fortran flags: -fpp -i8 -r8 -heap-arrays
Definitions: _MOLCAS_;_I8_;_LINUX_
Parallel: OFF (GA=OFF)


   -------------------------------------------------------------------------------------------------------
  |
  |           Project: h2
  |    Submitted from: /g100_scratch/userexternal/gbotti00/MOLCAS_21250235
  |      Scratch area: /scratch_local/slurm_job.21250235/h2
  |   Save outputs to: /g100_scratch/userexternal/gbotti00/MOLCAS_21250235
  |            Molcas: /g100/prod/opt/applications/openmolcas/21.10/intelmpi--oneapi-2021--binary
  |
  | Scratch area is NOT empty
  |
  |    MOLCAS_DRIVER = /g100/prod/opt/applications/openmolcas/21.10/intelmpi--oneapi-2021--binary/pymolcas
  |    MOLCAS_NPROCS = 48
  |    MOLCAS_SOURCE = /g100/prod/opt/applications/openmolcas/21.10/intelmpi--oneapi-2021--binary
  | MOLCAS_STRUCTURE = 0
  |
   -------------------------------------------------------------------------------------------------------

++ ---------   Input file   ---------

&GATEWAY
    Coord
    2
    OpenCazzas
    H 0.000000 0.000000 0.000000
    H 0.000000 0.000000 1.25
    Basis = def2-TZVP
    Group = NoSym

&SEWARD

&SCF
    KSDFT = B3LYP
    Charge = 0
    Spin = 1

&RASSCF
    Title = H2 SA-2-CAS(2,2)SCF
    symmetry = 1
    Nactel = 2 0 0
    Spin = 1
    Ras2 = 4
    ciroot = 2 2 1
    RLXRoot = 1

-- ----------------------------------

*** symbolic link created: INPORB -> h2.RasOrb
--- Start Module: gateway at Tue Jul 14 23:58:15 2026 ---
 
()()()()()()()()()()()()()()()()()()()()()()()()()()()()()()()()()()()()()()()()()()()()()()()()()()

                                              &GATEWAY

                                   only a single process is used
                       available to each process: 2.0 GB of memory, 1 thread?
                                             pid: 50363
()()()()()()()()()()()()()()()()()()()()()()()()()()()()()()()()()()()()()()()()()()()()()()()()()()
 
 
++    Symmetry information:
      ---------------------
 
                    Character Table for C1 
 
                             E  
                    a        1  x, y, xy, Rz, z, xz, Ry, yz, Rx, I
--
 
 
++    Basis set information:
      ----------------------
 
 
      Basis set label: H.DEF2-TZVP.........
 
      Electronic valence basis set:
      ------------------
      Associated Effective Charge   1.000000 au
      Associated Actual Charge      1.000000 au
      Nuclear Model: Point charge
 
      Shell  nPrim  nBasis  Cartesian Spherical Contaminant
         s       5       3        X                  
         p       1       1        X                  
--
 
 
++    Molecular structure info:
      -------------------------
 
                    ************************************************ 
                    **** Cartesian Coordinates / Bohr, Angstrom **** 
                    ************************************************ 
 
     Center  Label                x              y              z                     x              y              z
        1      H1               0.000000       0.000000       0.000000              0.000000       0.000000       0.000000
        2      H2               0.000000       0.000000       2.362158              0.000000       0.000000       1.250000
--
 
 
            Nuclear Potential Energy              0.42334177 au
 
--- Stop Module: gateway at Tue Jul 14 23:58:16 2026 /rc=_RC_ALL_IS_WELL_ ---
*** files: xmldump
    saved to directory /g100_scratch/userexternal/gbotti00/MOLCAS_21250235

*** symbolic link created: INPORB -> h2.RasOrb
--- Start Module: seward at Tue Jul 14 23:58:16 2026 ---
 
()()()()()()()()()()()()()()()()()()()()()()()()()()()()()()()()()()()()()()()()()()()()()()()()()()

                                              &SEWARD

                                   only a single process is used
                       available to each process: 2.0 GB of memory, 1 thread?
                                             pid: 50387
()()()()()()()()()()()()()()()()()()()()()()()()()()()()()()()()()()()()()()()()()()()()()()()()()()
 
               SEWARD will generate:
                  Multipole Moment integrals up to order  2
                  Kinetic Energy integrals
                  Nuclear Attraction integrals (point charge)
                  One-Electron Hamiltonian integrals
                  Velocity integrals
                  Orbital angular momentum around ( 0.0000  0.0000  1.1811 )
                  Velocity quadrupole around ( 0.0000  0.0000  1.1811 )
                  Two-Electron Repulsion integrals
 
                   Integrals are discarded if absolute value <: 0.10E-13
                   Integral cutoff threshold is set to       <: 0.10E-15
 
            Nuclear Potential Energy              0.42334177 au
 
 
      Basis set specifications :
      Symmetry species         a  
      Basis functions           12
 
 
  Input file to MOLDEN was generated!
 
--- Stop Module: seward at Tue Jul 14 23:58:16 2026 /rc=_RC_ALL_IS_WELL_ ---
*** files: h2.GssOrb h2.guessorb.h5 h2.guessorb.molden xmldump
    saved to directory /g100_scratch/userexternal/gbotti00/MOLCAS_21250235

*** symbolic link created: INPORB -> h2.ScfOrb
--- Start Module: scf at Tue Jul 14 23:58:16 2026 ---
 
()()()()()()()()()()()()()()()()()()()()()()()()()()()()()()()()()()()()()()()()()()()()()()()()()()

                                                &SCF

                                   only a single process is used
                       available to each process: 2.0 GB of memory, 1 thread?
                                             pid: 50411
()()()()()()()()()()()()()()()()()()()()()()()()()()()()()()()()()()()()()()()()()()()()()()()()()()
 
 ###############################################################################
 ###############################################################################
 ###                                                                         ###
 ###                                                                         ###
 ###     Minimized-density-differences option turned off!                    ###
 ###                                                                         ###
 ###                                                                         ###
 ###############################################################################
 ###############################################################################
++    Input section:
      --------------
 
      Header of the integral files:
      
       Integrals generated by Gateway/Seward, Tue Jul 14 23:58:16 2026
 
 
      Cartesian coordinates in Angstrom:
      -----------------------------------------------------
      No.  Label        X            Y            Z        
      -----------------------------------------------------
       1   H1         0.00000000   0.00000000   0.00000000
       2   H2         0.00000000   0.00000000   1.25000000
      -----------------------------------------------------
      Nuclear repulsion energy =    0.42334177
--
 
++    Orbital specifications:
      -----------------------
 
      Symmetry species               1
                                     a
      Frozen orbitals                0
      Occupied orbitals              1
      Secondary orbitals            11
      Deleted orbitals               0
      Total number of orbitals      12
      Number of basis functions     12
--
 
      Molecular charge                           0.000
 
 
      The same grid will be used for all iterations.
 
++    Optimization specifications:
      ----------------------------
 
      SCF Algorithm: Conventional
      D(i)-D(i-1) density differences are used
      Number of density matrices in core                5
      Maximum number of NDDO SCF iterations           400
      Maximum number of HF SCF iterations             400
      Threshold for SCF energy change            0.10E-08
      Threshold for density matrix               0.10E-03
      Threshold for Fock matrix                  0.15E-03
      Threshold for linear dependence            0.10E-08
      Threshold at which DIIS is turned on       0.15E+00
      Threshold at which QNR/C2DIIS is turned on 0.75E-01
      Threshold for Norm(delta) (QNR/C2DIIS)     0.20E-04
      DIIS extrapolation of the SCF procedure
      All orbitals punched on: SCFORB
--
 
      Input vectors read from INPORB
      Orbital file label: * RKS-DFT orbitals / B3LYP
 
 
++ Convergence information
                                   B3LYP      iterations: Energy and convergence statistics
 
Iter     Tot. B3LYP      One-elec.       Two-elec.     Energy      Max Dij or  Max Fij      DNorm      TNorm      AccCon     Time
         Energy          Energy          Energy        Change      Delta Norm                                                in Sec.
   1    -1.105445242    -2.508545983     0.979758973   0.00E+00    0.82E-01*   0.41E-01*    0.83E+00   0.42E+01   None         0.
   2    -1.108440520    -2.471414800     0.939632512  -0.30E-02*   0.13E-01*   0.38E-02*    0.11E+00   0.41E+01   EDIIS        0.
   3    -1.108493303    -2.477545056     0.945709985  -0.53E-04*   0.49E-03*   0.48E-03*    0.20E-01   0.41E+01   c2DIIS       0.
   4    -1.108494557    -2.476767944     0.944931618  -0.13E-05*   0.34E-04*   0.22E-04     0.99E-03   0.41E+01   QNRc2DIIS    0.
   5    -1.108494559    -2.476736091     0.944899763  -0.16E-08*   0.48E-05    0.32E-05     0.90E-04   0.41E+01   QNRc2DIIS    0.
   6    -1.108494559    -2.476740423     0.944904095  -0.32E-10    0.39E-07    0.64E-07     0.14E-04   0.41E+01   QNRc2DIIS    0.
 
       Convergence after  6 Macro Iterations
--
 
 *****************************************************************************************************************************
 *                                                                                                                           *
 *                                             SCF/KS-DFT Program, Final results                                             *
 *                                                                                                                           *
 *                                                                                                                           *
 *                                                                                                                           *
 *                                                       Final Results                                                       *
 *                                                                                                                           *
 *****************************************************************************************************************************
 
::    Total KS-DFT energy                              -1.1084945588
      One-electron energy                              -2.4767404226
      Two-electron energy                               0.9449040950
      Nuclear repulsion energy                          0.4233417687
      Kinetic energy (interpolated)                     0.8524560373
      Virial theorem                                    1.3003539307
      Total spin, S(S+1)                                0.0000000000
      Total spin, S                                     0.0000000000
      Max non-diagonal density matrix element           0.0000000594
      Max non-diagonal Fock matrix element              0.0000000041
 
 
      All orbitals with orbital energies smaller than  E(LUMO)+0.5 are printed
 
++    Molecular orbitals:
      -------------------
 
      Title: RKS-DFT orbitals

      Molecular orbitals for symmetry species 1: a  
 
          Orbital            1         2         3         4    
          Energy           -0.3588   -0.0524    0.2330    0.3361
          Occ. No.          2.0000    0.0000    0.0000    0.0000
 
        1 H1     1s         0.1633   -0.1543   -0.0733    0.1224
        2 H1     *s         0.2840   -0.2544   -0.8736    1.0594
        3 H1     *s         0.2107   -0.9200    0.9078   -1.7824
        4 H1     *px       -0.0000   -0.0000   -0.0000    0.0000
        5 H1     *py        0.0000    0.0000    0.0000   -0.0000
        6 H1     *pz        0.0158    0.0203   -0.0282   -0.0124
        7 H2     1s         0.1633    0.1543   -0.0733   -0.1224
        8 H2     *s         0.2840    0.2544   -0.8736   -1.0594
        9 H2     *s         0.2107    0.9200    0.9078    1.7824
       10 H2     *px       -0.0000    0.0000    0.0000   -0.0000
       11 H2     *py       -0.0000   -0.0000   -0.0000    0.0000
       12 H2     *pz       -0.0158    0.0203    0.0282   -0.0124
--
 
 
++    Molecular charges:
      ------------------
 
      Mulliken charges per centre and basis function type
      ---------------------------------------------------
 
                H1      H2    
      1s       0.1774  0.1774
      *s       0.8175  0.8175
      *px      0.0000  0.0000
      *pz      0.0051  0.0051
      *py      0.0000  0.0000
      Total    1.0000  1.0000
 
      N-E      0.0000 -0.0000
 
      Total electronic charge=    2.000000
 
      Total            charge=   -0.000000
--
 
 
++    Molecular properties:
      ---------------------
 
      Charge (e):
                      =   -0.0000
      Dipole Moment (Debye):
      Origin of the operator (Ang)=    0.0000    0.0000    0.0000
                   X=  1.3164E-17               Y=  3.4977E-17               Z= -5.6438E-15           Total=  5.6439E-15
      Quadrupole Moment (Debye*Ang):
      Origin of the operator (Ang)=    0.0000    0.0000    0.6250
                  XX= -2.7048E+00              XY= -2.8066E-35              XZ=  3.6853E-18              YY= -2.7048E+00
                  YZ=  2.9143E-17              ZZ= -1.5658E+00
      In traceless form (Debye*Ang)
                  XX= -5.6948E-01              XY= -4.2098E-35              XZ=  5.5280E-18              YY= -5.6948E-01
                  YZ=  4.3714E-17              ZZ=  1.1390E+00
--
 
 
  Input file to MOLDEN was generated!
 
 ###############################################################################
 ###############################################################################
 ###                                                                         ###
 ###                                                                         ###
 ###    WARNING: RunFile label nBas                                          ###
 ###    was used       78 times                                              ###
 ###                                                                         ###
 ###                                                                         ###
 ###############################################################################
 ###############################################################################
--- Stop Module: scf at Tue Jul 14 23:58:17 2026 /rc=_RC_ALL_IS_WELL_ ---
*** files: h2.scf.molden h2.ScfOrb h2.scf.h5 xmldump
    saved to directory /g100_scratch/userexternal/gbotti00/MOLCAS_21250235
--- Module scf spent 1 second ---

*** symbolic link created: INPORB -> h2.RasOrb
--- Start Module: rasscf at Tue Jul 14 23:58:17 2026 ---
 
()()()()()()()()()()()()()()()()()()()()()()()()()()()()()()()()()()()()()()()()()()()()()()()()()()

                                              &RASSCF

                                   only a single process is used
                       available to each process: 2.0 GB of memory, 1 thread?
                                             pid: 50459
()()()()()()()()()()()()()()()()()()()()()()()()()()()()()()()()()()()()()()()()()()()()()()()()()()
 
 ###############################################################################
 ###############################################################################
 ###                                                                         ###
 ###                                                                         ###
 ###    WARNING: The number of inactive orbitals is zero. Do                 ###
 ###    you really want this?                                                ###
 ###                                                                         ###
 ###                                                                         ###
 ###############################################################################
 ###############################################################################
 
      Header of the ONEINT file:
      --------------------------
      
      Integrals generated by Gateway/Seward, Tue Jul 14 23:58:16 2026
 
 
      OrdInt status: non-squared
 
 
      Cartesian coordinates in Angstrom:
      -----------------------------------------------------
      No.  Label        X            Y            Z        
      -----------------------------------------------------
       1   H1         0.00000000   0.00000000   0.00000000
       2   H2         0.00000000   0.00000000   1.25000000
      -----------------------------------------------------
      Nuclear repulsion energy =    0.42334177
 
++    Wave function specifications:
      -----------------------------
 
      Number of closed shell electrons           0
      Number of electrons in active shells       2
      Max number of holes in RAS1 space          0
      Max nr of electrons in RAS3 space          0
      Number of inactive orbitals                0
      Number of active orbitals                  4
      Number of secondary orbitals               8
      Spin quantum number                      0.0
      State symmetry                             1
--
 
++    Orbital specifications:
      -----------------------
 
      Symmetry species                           1
                                                 a
      Frozen orbitals                            0
      Inactive orbitals                          0
      Active orbitals                            4
      RAS1 orbitals                              0
      RAS2 orbitals                              4
      RAS3 orbitals                              0
      Secondary orbitals                         8
      Deleted orbitals                           0
      Number of basis functions                 12
--
 
++    CI expansion specifications:
      ----------------------------
 
      Number of CSFs                            10
      Number of determinants                    10
      Number of root(s) required                 2
      Root chosen for geometry opt.              1
      CI roots used                              1     2
      weights                                0.500 0.500
      highest root included in the CI            2
      max. size of the explicit Hamiltonian     10
--
 
++    Optimization specifications:
      ----------------------------
 
      RASSCF algorithm: Conventional
      Maximum number of macro iterations       200
      Maximum number of SX iterations          100
      Threshold for RASSCF energy            0.100E-07
      Threshold for max MO rotation          0.100E+00
      Threshold for max BLB element          0.100E-03
      Level shift parameter                  0.500E+00
      Make Quasi-Newton update
--
 
      Orbitals from runfile: scf orbitals
      The MO-coefficients are taken from scf orbitals on runfile
 
      Total molecular charge    0.00
 
      ************************************************************************************************************************
      *                                                                                                                      *
      *                                            Wave function control section                                             *
      *                                                                                                                      *
      ************************************************************************************************************************
 
 
                                         RASSCF iterations: Energy and convergence statistics
                                         ----------------------------------------------------
 
      Iter CI   SX   CI       RASSCF       Energy    max ROT     max BLB   max BLB  Level Ln srch  Step   QN   Walltime
          iter iter root      energy       change     param      element    value   shift minimum  type update hh:mm:ss
 Nr of preliminary CI iterations:   1
        1   1    9    0    -0.89590197    0.00E+00   0.27E+00*   1   7 1  0.64E-01*  0.00   0.00    SX    NO    0:00:00
        2   1    9    0    -0.90207515   -0.62E-02* -0.15E+00*   1   7 1  0.87E-02*  0.00   0.00    SX    NO    0:00:00
        3   1    8    0    -0.90297218   -0.90E-03* -0.75E-01    1   7 1  0.36E-02*  0.00   0.00    SX    NO    0:00:00
        4   1    8    0    -0.90320728   -0.24E-03*  0.40E-01    2  10 1 -0.19E-02*  0.00   0.00    SX    NO    0:00:00
        5   1    8    0    -0.90327046   -0.63E-04*  0.41E-01    1  11 1  0.10E-02*  0.00   2.12    LS   YES    0:00:00
        6   1    7    0    -0.90329443   -0.24E-04* -0.53E-02    2  12 1 -0.14E-03*  0.00   1.11    QN   YES    0:00:00
        7   1    6    0    -0.90329478   -0.34E-06*  0.58E-03    1   7 1 -0.62E-04   0.00   1.12    QN   YES    0:00:00
        8   1    5    0    -0.90329479   -0.10E-07* -0.40E-04    1   7 1 -0.17E-04   0.00   1.16    QN   YES    0:00:00
        9   1    4    0    -0.90329479   -0.42E-09  -0.16E-04    1   7 1 -0.23E-05   0.00   1.10    QN   YES    0:00:00
      Convergence after  9 iterations
       10   1    4    0    -0.90329479   -0.10E-10  -0.16E-04    1  11 1  0.32E-06   0.00   1.10    QN   YES    0:00:00
 
      ************************************************************************************************************************
                                                      Wave function printout:
                       occupation of active orbitals, and spin coupling of open shells (u,d: Spin up or down)
      ************************************************************************************************************************
 
      Note: transformation to natural orbitals
      has been made, which may change the order of the CSFs.
 
      printout of CI-coefficients larger than  0.05 for root  1
      energy=      -1.094584
      conf/sym  1111     Coeff  Weight
             1  2000   0.97095 0.94274
             3  0200  -0.15744 0.02479
             4  u0d0   0.07393 0.00547
             7  0u0d   0.13956 0.01948
            10  0002  -0.07466 0.00557
 
      printout of CI-coefficients larger than  0.05 for root  2
      energy=      -0.712006
      conf/sym  1111     Coeff  Weight
             2  ud00   0.99410 0.98823
             6  0ud0  -0.09644 0.00930
 
      Natural orbitals and occupation numbers for root  1
      sym 1:   1.895931   0.099514   0.004391   0.000163
 
      Natural orbitals and occupation numbers for root  2
      sym 1:   0.999637   0.999637   0.000363   0.000363
 
      ************************************************************************************************************************
      *                                                                                                                      *
      *                                                    Final results                                                     *
      *                                                                                                                      *
      ************************************************************************************************************************
 
 
++    Wave function specifications:
      -----------------------------
 
      Number of closed shell electrons           0
      Number of electrons in active shells       2
      Max number of holes in RAS1 space          0
      Max nr of electrons in RAS3 space          0
      Number of inactive orbitals                0
      Number of active orbitals                  4
      Number of secondary orbitals               8
      Spin quantum number                      0.0
      State symmetry                             1
--
 
++    Orbital specifications:
      -----------------------
 
      Symmetry species                           1
                                                 a
      Frozen orbitals                            0
      Inactive orbitals                          0
      Active orbitals                            4
      RAS1 orbitals                              0
      RAS2 orbitals                              4
      RAS3 orbitals                              0
      Secondary orbitals                         8
      Deleted orbitals                           0
      Number of basis functions                 12
--
 
++    CI expansion specifications:
      ----------------------------
 
      Number of CSFs                            10
      Number of determinants                    10
      Number of root(s) required                 2
      CI roots used                              1     2
      weights                                0.500 0.500
      highest root included in the CI            2
      Root passed to geometry opt.               1
--
 
++    Final optimization conditions:
      ------------------------------
 
      Average CI energy                              -0.90329479
      RASSCF energy for state  1                     -1.09458389
      Super-CI energy                                -0.00000000
      RASSCF energy change                           -0.00000000
      Max change in MO coefficients              -0.182E-04
      Max non-diagonal density matrix element    -0.165E-04
      Maximum BLB matrix element                  0.318E-06
      (orbital pair   1,  11 in symmetry   1)
      Norm of electronic gradient            0.190E-01
--
 
 
      Final state energy(ies):
      ------------------------
 
::    RASSCF root number  1 Total energy:     -1.09458389
::    RASSCF root number  2 Total energy:     -0.71200569
 
++    Molecular orbitals:
      -------------------
 
      Pseudonatural active orbitals and approximate occupation numbers
 
 
 
 
      Molecular orbitals for symmetry species 1: a  
 
 
      Orbital                 1         2         3         4
      Energy             0.0000    0.0000    0.0000    0.0000
      Occ. No.           1.4406    0.5333    0.0096    0.0165
 
     1 H1     1s         0.1582   -0.1075   -0.1077    0.2911
     2 H1     *s         0.3239   -0.0937   -0.4805    0.8896
     3 H1     *s         0.1702   -1.2027    0.6443   -1.4271
     4 H1     *px       -0.0000   -0.0000    0.0000    0.0000
     5 H1     *py       -0.0000    0.0000    0.0000   -0.0000
     6 H1     *pz        0.0362    0.0185   -0.3702    0.0487
     7 H2     1s         0.1582    0.1075   -0.1077   -0.2911
     8 H2     *s         0.3239    0.0937   -0.4805   -0.8896
     9 H2     *s         0.1702    1.2027    0.6443    1.4271
    10 H2     *px       -0.0000   -0.0000    0.0000   -0.0000
    11 H2     *py       -0.0000    0.0000    0.0000    0.0000
    12 H2     *pz       -0.0362    0.0185    0.3702    0.0487
--
 
      Von Neumann Entropy (Root   1) =  0.30898
 

      Mulliken population analysis for root number:  1
      -----------------------------------------------
 
 
++    Molecular charges:
      ------------------
 
      Mulliken charges per centre and basis function type
      ---------------------------------------------------
 
                H1      H2    
      1s       0.1709  0.1709
      *s       0.8231  0.8231
      *px      0.0000  0.0000
      *pz      0.0060  0.0060
      *py      0.0000  0.0000
      Total    1.0000  1.0000
 
      N-E     -0.0000 -0.0000
 
      Total electronic charge=    2.000000
 
      Total            charge=   -0.000000
--
 
 

      Expectation values of various properties for root number:  1
      -----------------------------------------------------------
 
 
++    Molecular properties:
      ---------------------
 
      Charge (e):
                      =   -0.0000
      Dipole Moment (Debye):
      Origin of the operator (Ang)=    0.0000    0.0000    0.0000
                   X=  4.7074E-18               Y=  4.9893E-17               Z= -1.8060E-14           Total=  1.8060E-14
      Quadrupole Moment (Debye*Ang):
      Origin of the operator (Ang)=    0.0000    0.0000    0.6250
                  XX= -2.6407E+00              XY=  1.6280E-35              XZ=  1.3509E-18              YY= -2.6407E+00
                  YZ=  2.7911E-17              ZZ= -1.6389E+00
      In traceless form (Debye*Ang)
                  XX= -5.0092E-01              XY=  2.4420E-35              XZ=  2.0263E-18              YY= -5.0092E-01
                  YZ=  4.1866E-17              ZZ=  1.0018E+00
--
 
      Von Neumann Entropy (Root   2) =  1.00468
 

      Mulliken population analysis for root number:  2
      -----------------------------------------------
 
 
++    Molecular charges:
      ------------------
 
      Mulliken charges per centre and basis function type
      ---------------------------------------------------
 
                H1      H2    
      1s       0.1255  0.1255
      *s       0.8518  0.8518
      *px      0.0000  0.0000
      *pz      0.0227  0.0227
      *py      0.0000  0.0000
      Total    1.0000  1.0000
 
      N-E     -0.0000 -0.0000
 
      Total electronic charge=    2.000000
 
      Total            charge=   -0.000000
--
 
 

      Expectation values of various properties for root number:  2
      -----------------------------------------------------------
 
 
++    Molecular properties:
      ---------------------
 
      Charge (e):
                      =   -0.0000
      Dipole Moment (Debye):
      Origin of the operator (Ang)=    0.0000    0.0000    0.0000
                   X=  2.1436E-17               Y=  1.5488E-16               Z= -2.7090E-14           Total=  2.7091E-14
      Quadrupole Moment (Debye*Ang):
      Origin of the operator (Ang)=    0.0000    0.0000    0.6250
                  XX= -3.7940E+00              XY= -8.6762E-35              XZ=  1.6237E-17              YY= -3.7940E+00
                  YZ= -5.9796E-18              ZZ= -7.7932E+00
      In traceless form (Debye*Ang)
                  XX=  1.9996E+00              XY= -1.3014E-34              XZ=  2.4355E-17              YY=  1.9996E+00
                  YZ= -8.9694E-18              ZZ= -3.9992E+00
--
 
 
  Input file to MOLDEN was generated!
 
 
  Input file to MOLDEN was generated!
 
 
  Input file to MOLDEN was generated!
 
      Average orbitals are written to the RASORB file
      Natural orbitals for root   1 are written to the RASORB.1 file
      Natural orbitals for root   2 are written to the RASORB.2 file
      Spin density orbitals for root   1 are written to the SPDORB.1 file
      Spin density orbitals for root   2 are written to the SPDORB.2 file
 
--- Stop Module: rasscf at Tue Jul 14 23:58:18 2026 /rc=_RC_ALL_IS_WELL_ ---
*** files: h2.rasscf.molden h2.rasscf.molden.1 h2.rasscf.molden.2 h2.RasOrb h2.RasOrb.1 h2.RasOrb.2 h2.rasscf.h5 h2.SpdOrb.1 h2.SpdOrb.2 xmldump
    saved to directory /g100_scratch/userexternal/gbotti00/MOLCAS_21250235

.##################.
.# Happy landing! #.
.##################.

    Timing: Wall=2.80 User=2.33 System=0.40
