[Molden Format]
made by pyscf v[2.13.1]
[Atoms] (AU)
O   1   8     0.21099695469856     0.00000000000000     2.15462460678861
N   2   7    -0.44776862100326     0.00000000000000    -0.03589262653049
H   3   1     1.18163474748449     0.00000000000000    -1.17386889907833
[GTO]
1 0
 s    8 1.00
                 11720  0.00070964594651845
                  1759  0.0054672722921914
                 400.8   0.027823118610189
                 113.7    0.10474773971146
                 37.03    0.28292084635691
                 13.27    0.44849523869833
                 5.025    0.27081688521277
                 1.013    0.01545029160744
 s    8 1.00
                 11720  -0.00031444341168873
                  1759  -0.0024821376810179
                 400.8  -0.012316355381583
                 113.7  -0.050538917343672
                 37.03   -0.13938490331632
                 13.27   -0.32507749481778
                 5.025   -0.22984830758785
                 1.013     1.0953793467883
 s    1 1.00
                0.3023                   1
 s    1 1.00
               0.07896                   1
 p    3 1.00
                  17.7   0.062679166281506
                 3.854    0.33353656587936
                 1.046    0.74123964163973
 p    1 1.00
                0.2753                   1
 p    1 1.00
               0.06856                   1
 d    1 1.00
                 1.185                   1
 d    1 1.00
                 0.332                   1

2 0
 s    8 1.00
                  9046  0.00069961741342552
                  1357  0.0053860546299287
                 309.3   0.027391021189057
                 87.73    0.10315059198201
                 28.56    0.27857066331743
                 10.21    0.44829484945412
                 3.838    0.27808592839527
                0.7466   0.015431561233271
 s    8 1.00
                  9046  -0.00030499009595337
                  1357  -0.0024080263785077
                 309.3   -0.01194444872518
                 87.73  -0.048925992909017
                 28.56   -0.13447272472496
                 10.21   -0.31511257770011
                 3.838   -0.24285783254964
                0.7466     1.0943822068542
 s    1 1.00
                0.2248                   1
 s    1 1.00
               0.06124                   1
 p    3 1.00
                 13.55   0.058905676772132
                 2.917    0.32046110671427
                0.7973    0.75304206179207
 p    1 1.00
                0.2185                   1
 p    1 1.00
               0.05611                   1
 d    1 1.00
                 0.817                   1
 d    1 1.00
                  0.23                   1

3 0
 s    3 1.00
                 13.01   0.033498726389998
                 1.962    0.23480080117413
                0.4446     0.8136829578829
 s    1 1.00
                 0.122                   1
 s    1 1.00
               0.02974                   1
 p    1 1.00
                 0.727                   1
 p    1 1.00
                 0.141                   1

[5d]
[7f]
[9g]

[MO]
 Sym= A
 Ene=               0
 Spin= Alpha
 Occup=    1.00000
   1    0.0018014877082767
   2     0.058800249709404
   3      0.10779624579527
   4     0.034692942985221
   5     -0.20283680342146
   6    -3.2337305147653e-14
   7      0.43472293156964
   8     -0.12733754627168
   9    -2.2385294195033e-14
  10      0.26677273105226
  11    -0.010152757322185
  12    -1.6180387057823e-15
  13    0.0097233491646738
  14    -0.021219187780863
  15    0.0029298772172155
  16    1.9387510905068e-15
  17    0.0027263508609107
  18    4.8004087492439e-16
  19    -0.021307943887691
  20    0.0034411564526289
  21    2.1670742240783e-15
  22    0.0005624866580692
  23    5.8104058366411e-16
  24    0.00022376601163427
  25     0.087418335269474
  26      0.22084180315948
  27      0.01199230218426
  28     -0.31251574171357
  29    -2.5946969089555e-14
  30     -0.29883604939479
  31     -0.15552780217992
  32    -1.6241091260075e-14
  33     -0.11308307561572
  34     -0.01357049609732
  35    -1.8438956953551e-15
  36    -0.0039751425721617
  37    -0.0088193152421919
  38    -0.035084256146955
  39    -2.6431454019045e-15
  40    -0.012157831024135
  41    -1.3404477693525e-15
  42    0.0048871540385903
  43    0.0032343875879961
  44    -4.1233015919208e-16
  45    -0.0056955711584491
  46    -1.2755851163767e-15
  47     0.017481030556948
  48     0.034397576156502
  49    0.0034539973644533
  50    -0.0055441635894257
  51    -6.5383525527878e-16
  52    -0.0065776911973765
  53    -0.0084543447743666
  54    4.0195873610898e-16
  55    0.0090888488180813
 Sym= A
 Ene=               1
 Spin= Alpha
 Occup=    1.00000
   1    -0.00041536766109911
   2    -0.060807402882644
   3     -0.10316803448194
   4    -0.040933607362863
   5      0.48261897863384
   6    -1.6544617361302e-13
   7     -0.12679309398701
   8       0.3852874741701
   9    -1.1849549509786e-13
  10    -0.078491865236609
  11     0.086385306211386
  12    -1.0196525199289e-14
  13    -0.0090811058948007
  14    -0.000476224450819
  15    -0.00011526191577345
  16    9.6795448013781e-15
  17    -0.00056345342109762
  18    2.5713201753759e-15
  19     0.001594855248348
  20    -0.011350620267404
  21    1.3901597557981e-14
  22    -0.0040718825930562
  23    3.1309368987063e-15
  24    0.0014297442300975
  25      0.16336860624882
  26      0.32336320908906
  27      0.13610759219135
  28     -0.37986668822713
  29    -1.3104579120752e-13
  30    -0.038476222706024
  31     -0.27469968734146
  32    -7.7965962464604e-14
  33    0.0038689956216689
  34    -0.049899263108256
  35    -7.2356170323507e-15
  36    -0.0018100797919331
  37    -0.010189992214865
  38     0.023625783858962
  39    -1.347481786674e-14
  40    -0.0093684644015098
  41    -6.8859053625612e-15
  42     0.015051083695026
  43    0.0034913546407978
  44    7.8408274084734e-16
  45    -0.0081305623603266
  46    -4.8379933973197e-15
  47     -0.24452101350811
  48     -0.13982464969673
  49     -0.02417245696532
  50    0.0082976217059826
  51    -3.5142702918956e-15
  52    -0.012885762090686
  53    -0.0063572880298109
  54    1.1007392048969e-15
  55     0.017964459571978
 Sym= A
 Ene=               2
 Spin= Alpha
 Occup=    1.00000
   1    -0.0041731096454535
   2     0.091687804970585
   3      0.19414522467703
   4     0.050147010248476
   5      0.17281064308792
   6    -1.0482343195226e-11
   7      0.21230255818035
   8      0.10423673437463
   9    -7.4924932946801e-12
  10     0.087678957456049
  11     0.010602163252832
  12    -7.0038346773928e-13
  13    -0.0084028813528578
  14    -0.016884546715511
  15    -0.0095867410585543
  16    6.0972900299623e-13
  17    0.00011609307447661
  18    1.6172234919548e-13
  19    -0.012101418643802
  20    -0.0063069613602926
  21    8.8284448730673e-13
  22    -0.00082015628935308
  23    2.0464763868783e-13
  24    -0.010923278908439
  25     -0.43077386774838
  26     -0.36437543502664
  27    -0.027466225588349
  28    -0.073583740367391
  29    -8.307739674771e-12
  30     0.024169006155354
  31    -0.0083205071615904
  32    -4.9516127107288e-12
  33    0.0076549899140509
  34    -0.0081817333812202
  35    -3.8726022455274e-13
  36    -0.004113156211858
  37    -0.009530195357597
  38    0.0060936371712564
  39    -8.5139186091906e-13
  40    -0.0058512274504105
  41    -4.4234692890044e-13
  42    -0.007068816567289
  43    -0.016635793146495
  44    5.0655901962048e-14
  45     0.010106824635343
  46    -2.9705246477961e-13
  47     -0.23977849397129
  48    -0.010866089697035
  49    -0.00085649607632406
  50     0.029049916774651
  51    -2.2429859215513e-13
  52    -0.018942360265219
  53    -0.011166369763136
  54    6.2813563496231e-14
  55     0.011107339743734
 Sym= A
 Ene=               3
 Spin= Alpha
 Occup=    1.00000
   1    -1.5066947636405e-13
   2    3.4363900654305e-13
   3    2.1577442090151e-12
   4    7.5650800516586e-13
   5    2.8156947099049e-12
   6      0.46121976843488
   7    4.3323661200234e-12
   8    1.7012860046326e-12
   9      0.32974340462069
  10    1.8493873109006e-12
  11    2.3990067301951e-13
  12     0.030802567338183
  13    -1.8075993450926e-13
  14    -4.006237678748e-13
  15    -1.7305316406464e-13
  16    -0.026824120160976
  17    1.2445578189533e-14
  18    -0.0071124454579522
  19    -3.1384243190543e-13
  20    -8.9343700195697e-14
  21    -0.038877470563028
  22    -1.9031409613781e-14
  23    -0.0090210235614492
  24    -3.3172878225933e-13
  25    -1.0034539534084e-11
  26    -7.9845486177841e-12
  27    -4.5742892793134e-13
  28    -2.6637165730647e-12
  29      0.36554341648903
  30    9.4118658002573e-13
  31    -4.9612867368123e-13
  32      0.21781160050653
  33    5.5415001915794e-13
  34    -2.1809302152763e-13
  35     0.017054177082774
  36    -2.308845382607e-14
  37    -2.0069468179565e-13
  38    1.0410385055507e-13
  39     0.037460083469865
  40    -1.8494604418189e-13
  41     0.019463655437898
  42    -1.2880286811252e-13
  43    -3.2469796710397e-13
  44    -0.0022756620392066
  45    2.665553078159e-13
  46     0.013052508618961
  47    -6.2925061463203e-12
  48    -3.2426582202796e-13
  49    -2.4330376326206e-14
  50    7.4065196392796e-13
  51    0.0098714669262827
  52    -4.9428979481437e-13
  53    -2.9119937510728e-13
  54    -0.0027623694064091
  55    2.5468603151508e-13
 Sym= A
 Ene=               4
 Spin= Alpha
 Occup=    1.00000
   1    0.0062414162777319
   2      0.46581754711592
   3      0.57451654563073
   4     0.066218416040276
   5     0.088860005171328
   6    1.7378865761057e-12
   7    0.0022834103412679
   8      0.05680713689422
   9    1.2424079151465e-12
  10    -0.030609188850491
  11    0.0081168426438753
  12    1.1598690157052e-13
  13    -0.00051292148953714
  14    0.0076346144626395
  15    0.0017619873008793
  16    -1.0105470707975e-13
  17    0.00031111266611693
  18    -2.6793915040731e-14
  19     0.010480307499937
  20    0.00036564129204963
  21    -1.4656879289066e-13
  22    0.0012685546047927
  23    -3.3978139265494e-14
  24     0.037179484416149
  25     0.093655639258114
  26    -0.054926692682587
  27    -0.019542831218121
  28     0.043876132904829
  29    1.3773126049089e-12
  30      0.11822025582099
  31    -0.015502548998189
  32    8.2072063910622e-13
  33     -0.03818030836105
  34    -0.0027145606795693
  35    6.4346330128157e-14
  36    -0.011885533617573
  37     0.017341237277009
  38     0.019476769116214
  39    1.4117770267189e-13
  40    0.00076951749547833
  41    7.3279521881993e-14
  42    -0.015890925520852
  43    -0.0094892051016294
  44    -8.5907186340997e-15
  45    -0.0050776103070609
  46    4.926100563467e-14
  47    -0.0025487810434109
  48    -0.028077959094371
  49    -0.0016408810149335
  50    -0.0034831276198595
  51    3.7246620023391e-14
  52    0.0045121294507823
  53    0.0065787108260793
  54    -1.063031757613e-14
  55    -0.0033717817109127
 Sym= A
 Ene=               5
 Spin= Alpha
 Occup=    1.00000
   1     -0.00262670445786
   2    -0.011902663578244
   3     0.019649354161776
   4     0.032479115524155
   5      0.36076493555552
   6    1.1959362717252e-12
   7      0.18080151658594
   8      0.22527590193767
   9    8.5469942896279e-13
  10     0.099445547309028
  11    0.0010942431760015
  12    7.9244610150369e-14
  13    -0.0012661175423248
  14    -0.005228949480512
  15    -0.019776437394252
  16    -6.9584272558683e-14
  17    -0.0042255104346388
  18    -1.8448818989313e-14
  19    -0.0012394512393619
  20    -0.023022284076058
  21    -1.0053073250516e-13
  22    -0.0022953956073221
  23    -2.3371550096865e-14
  24    -0.035689108044189
  25     -0.01679407524794
  26     0.019898817348606
  27    -0.0026383066721276
  28      0.25737667441971
  29    9.4752076487631e-13
  30     -0.33608562745422
  31     0.099950162233113
  32    5.6522439684488e-13
  33    -0.088848180355362
  34     0.011105962542041
  35    4.4244188573754e-14
  36    -0.0066359328383591
  37    -0.032836271776497
  38    -0.012662262628902
  39    9.7100957010222e-14
  40     0.017246210161328
  41    5.0480237494754e-14
  42     0.014043847680476
  43    -0.0050674976702544
  44    -5.6993185753286e-15
  45    -0.0077963308239554
  46    3.3941849671637e-14
  47      0.29595522382839
  48     0.052612437692596
  49    -0.00070922927733457
  50    -0.025071007624415
  51    2.558004831768e-14
  52      0.01602601332294
  53    0.0028613404874481
  54    -7.1685991395712e-15
  55    0.0069576457892573
 Sym= A
 Ene=               6
 Spin= Alpha
 Occup=    1.00000
   1     -0.60985899518823
   2    -0.013038969320426
   3    -0.0053748939324516
   4    0.00083888970532031
   5    0.0068831860147894
   6    2.3120422873676e-15
   7    0.0052356183545928
   8    0.0035857150259103
   9    -4.170488229681e-16
  10    4.8348704647289e-05
  11    -0.00017982407931423
  12    -1.367141619616e-15
  13    -0.00020713102340515
  14    -0.00072926697444022
  15    -0.00060563301329362
  16    -7.4876867539205e-16
  17    -0.00032078588289766
  18    -2.1937116739029e-16
  19    -0.0001076127336601
  20    -0.00054473336736139
  21    2.0812734108369e-15
  22    -0.00015737018625866
  23    5.0912674539459e-16
  24      0.79389028175355
  25    -0.00098165845735098
  26    -0.0093982754297718
  27    -0.0027142382982443
  28    0.0053737043812565
  29    1.8707800304244e-15
  30    -0.0094285361567287
  31    -0.0010871454531524
  32    3.8714469497554e-15
  33    -0.0047586235356603
  34    -0.0003287331572017
  35    1.3010898174642e-15
  36    -1.5461994615131e-05
  37    -0.00055206680857374
  38    -0.00051202073248304
  39    3.1436301698908e-16
  40    0.00076908625619737
  41    1.4054295614215e-16
  42    -0.00076417853208385
  43    -0.00074762187751078
  44    1.8493288867142e-15
  45    -0.00047739437166331
  46    9.2027292663188e-16
  47    0.0060375596882587
  48    0.0054426687470253
  49    0.00055994431541476
  50    -7.0260153161079e-05
  51    -4.6224279896045e-17
  52    6.4095861881426e-05
  53    -0.0012906527531837
  54    -3.1195271036497e-16
  55    0.0014329929573593
 Sym= A
 Ene=               7
 Spin= Alpha
 Occup=    1.00000
   1      0.79515802335638
   2    -0.013662485344712
   3    -0.032673211653678
   4    -0.0060525924217327
   5    0.0067454875161501
   6    2.4931408192054e-14
   7    0.0054668509687139
   8    0.0064820774285442
   9    1.6054586361781e-14
  10     0.012362805823111
  11    0.00017572173158269
  12    3.4725109677673e-16
  13    0.00074081625721456
  14    -0.00058192995372161
  15    -0.00065160044535385
  16    -1.9098230401956e-15
  17    0.00011357827959293
  18    -5.56313791209e-16
  19    -0.0027050190215739
  20    -0.0017153528000004
  21    -2.1638946087803e-16
  22    -0.00031991738653239
  23    -5.3608943057298e-17
  24      0.60867931113838
  25    -0.0081891835001799
  26    0.0035653582702546
  27    0.0020711411351761
  28    0.0043908444903523
  29    1.9761480133124e-14
  30    -0.010632947718837
  31    0.0031387668958471
  32    1.4044706424677e-14
  33    0.0073650477069427
  34    -0.00010682265702634
  35    1.8861934233073e-15
  36    0.0014455844675364
  37    -0.0013380552534312
  38    -0.0010549720263139
  39    2.1095434227323e-15
  40    0.0006092068322449
  41    1.0809793805849e-15
  42    0.0023960069241044
  43    0.0013393392617522
  44    1.4137667749215e-15
  45    0.00017044980245481
  46    1.4126018541423e-15
  47    0.0034107326278536
  48    0.0069517173624331
  49    0.00027425378135238
  50    0.00035689810216815
  51    4.5646203093997e-16
  52    -0.00045834544318543
  53    -0.0020479719112469
  54    -3.8712530855159e-16
  55    0.0015043109600564
 Sym= A
 Ene=               8
 Spin= Alpha
 Occup=    0.00000
   1    2.715293003634e-16
   2    4.0136465197878e-15
   3    7.078272558003e-14
   4    3.1142041585405e-13
   5    2.6754742178609e-14
   6     -0.49159507543483
   7    1.2779190039679e-15
   8    1.9462702722505e-14
   9     -0.38983491300099
  10    -7.179020094172e-14
  11    -3.4111347277073e-14
  12    -0.094090699856934
  13    -5.5575639998533e-14
  14    8.2049771836117e-16
  15    3.7217308061224e-15
  16    -0.0046193306888442
  17    1.736377468235e-15
  18    -0.0032129646375162
  19    2.2708854401017e-14
  20    -2.3092992831606e-15
  21    0.0098226401758686
  22    -2.9980615182999e-15
  23    -0.0049759793119231
  24    -1.1342440739954e-14
  25    -6.9415654500838e-14
  26    -2.0405090826625e-13
  27    -2.6501439723454e-13
  28    -7.6758341339994e-14
  29      0.54058103320787
  30    1.0861799562206e-13
  31    -8.142881378543e-14
  32      0.44831500178538
  33    -4.682955700448e-14
  34    -1.0169432666905e-13
  35     0.098639837585959
  36    -1.9748353222014e-13
  37    -2.7441557122589e-15
  38    2.535351685361e-15
  39    -0.0082116882137908
  40    5.4993309998375e-15
  41     0.014862886979237
  42    -5.8970642761091e-15
  43    -3.8921517842258e-14
  44    0.0050198294153434
  45    -1.5270215421948e-14
  46     0.023810659204214
  47    6.7760893673111e-14
  48    1.933751637507e-13
  49    8.6240864112428e-14
  50    7.1579740178331e-15
  51      0.01891566653252
  52    -3.2844066171749e-15
  53    2.7519797855388e-14
  54      0.01469970487335
  55    -2.0381650531328e-14
 Sym= A
 Ene=               9
 Spin= Alpha
 Occup=    0.00000
   1    7.3147899486265e-14
   2    8.2927832081357e-13
   3    2.2726473872331e-12
   4    2.9095257460905e-12
   5    1.2626093386765e-13
   6     -0.35332332413243
   7    8.6035233279853e-13
   8    -1.8640997170391e-13
   9    -0.047220095734167
  10    5.3131369511213e-13
  11    -1.004312715356e-12
  12      0.52210461483104
  13    -2.6566249436617e-14
  14    1.325313604809e-13
  15    -4.8761262992323e-14
  16    -0.015122648870432
  17    -6.1120752056942e-14
  18    -0.021958130119016
  19    2.6910310254605e-13
  20    1.2732359671459e-13
  21    -0.067589942770408
  22    -6.0005080444763e-14
  23    -0.044295583477958
  24    3.1514556398381e-13
  25    2.5354300147978e-12
  26    5.6710987051289e-12
  27    8.2686041220418e-13
  28    2.3918119496884e-12
  29     -0.38925619782594
  30    -2.4028838463601e-12
  31    2.2154206007344e-12
  32     0.014202785697852
  33    -2.574604674002e-12
  34    1.0774793359373e-12
  35      0.44248456455675
  36    -1.5515516003685e-12
  37    4.1269628878676e-14
  38    7.0690251734741e-14
  39     0.040489415592231
  40    -1.1948545853124e-14
  41     -0.02195600856178
  42    -8.6428978933828e-14
  43    1.4026252868235e-13
  44       0.1851478106266
  45    8.2364498262025e-14
  46     0.029728153440789
  47    -1.007287117373e-12
  48    -6.9488382638041e-12
  49    -1.6223076557288e-11
  50    -3.489721128626e-13
  51    -0.0093642323789059
  52    1.2793086482365e-13
  53    -4.6381916199429e-13
  54    -0.011647162328764
  55    -8.5640555594711e-13
 Sym= A
 Ene=              10
 Spin= Alpha
 Occup=    0.00000
   1    -2.3928593485058e-13
   2    -1.9035838330801e-12
   3    -4.6441501040936e-12
   4    1.3378709315091e-11
   5    9.9449719819066e-13
   6     -0.62650016880034
   7    -9.6538193733855e-12
   8    -1.9501705614668e-12
   9      0.38310737733851
  10    2.3666535491426e-13
  11    -1.112216068593e-11
  12    0.0096816375277309
  13    5.609163978044e-12
  14    1.5572118697887e-12
  15    -1.2460606211651e-13
  16     0.022349446782631
  17    2.7181050055551e-12
  18    -0.00042583243194803
  19    2.4152664500999e-12
  20    -1.3878915402312e-12
  21     -0.09904512761746
  22    4.7810660422195e-12
  23    -0.057329147994233
  24    2.7563406802266e-13
  25    -6.2798529137162e-13
  26    -6.462889842103e-12
  27    -1.7012827247714e-11
  28    -8.150964322567e-12
  29    -0.099971615509932
  30    -5.9446383188877e-12
  31    2.5628601029898e-13
  32      0.28749253670271
  33    3.0382575987433e-12
  34    1.3756735259184e-11
  35     -0.55493045820659
  36    1.8438938269294e-12
  37    -2.6738800747448e-12
  38    -5.9233875046705e-13
  39      0.25029767305012
  40    -5.5931551854404e-12
  41      0.16347360622194
  42    -7.4449696206895e-13
  43    1.2472110522229e-13
  44      0.39394292481384
  45    -6.5920300215363e-12
  46      0.18267133436561
  47    -1.6065554796826e-12
  48    1.0983056264661e-11
  49    1.8877402355614e-11
  50    9.719936352932e-13
  51     0.023636273710226
  52    -3.5493053772659e-13
  53    3.4956121870854e-12
  54     -0.15471605160757
  55    1.3360352454357e-12
 Sym= A
 Ene=              11
 Spin= Alpha
 Occup=    0.00000
   1    0.0094270965004149
   2     0.042183491619606
   3    0.0025919057549952
   4     -0.77546292375068
   5     -0.08551967253464
   6    -1.5009361793903e-11
   7      0.42671624619275
   8     0.086400270762709
   9    1.0088575641595e-11
  10     0.012642298619284
  11      0.52546371744895
  12    7.073029140896e-13
  13     -0.24336559325686
  14     -0.09075031419452
  15    0.0062844415921751
  16    1.058749215279e-12
  17     -0.12798556649892
  18    -3.2937120928624e-13
  19     -0.14123299965913
  20     0.069394865038803
  21    -1.2225440851103e-12
  22     -0.20970970390362
  23    -1.6017143418138e-12
  24    -0.0065141815579045
  25    -0.013361692506757
  26      0.12303805155167
  27      0.80045812873871
  28        0.314789743408
  29    -1.0345761494043e-12
  30      0.34593698820967
  31     -0.10183706673985
  32    5.651537563734e-12
  33     0.011030989367959
  34     -0.51762207941395
  35    -1.5244340394099e-11
  36     0.011373843869834
  37      0.13055998365064
  38     0.040529097886273
  39    5.5563377277532e-12
  40      0.26164306625881
  41    4.9804052498615e-12
  42     0.053882519923502
  43      0.03584335847314
  44    8.2908640030908e-12
  45      0.34601627713658
  46    6.381925062247e-12
  47     0.043100443847823
  48     -0.24461333203152
  49     -0.16084145012058
  50    -0.019357333704457
  51    8.4656968090765e-13
  52     0.011288548490126
  53     -0.12364863670675
  54    -2.7612292719179e-12
  55    0.0075469216062744
 Sym= A
 Ene=              12
 Spin= Alpha
 Occup=    0.00000
   1    1.0247005271537e-13
   2    9.2715574890021e-13
   3    2.9766954257159e-12
   4    4.6758166339868e-15
   5    1.6378166908531e-12
   6    -0.052338412658585
   7    -6.719008447054e-13
   8    -1.6457517947567e-13
   9     -0.15676328486649
  10    8.5964936992525e-13
  11    -4.4931566671654e-12
  12      0.73525950154326
  13    2.3200560265175e-12
  14    4.2517549455803e-13
  15    -9.8837579198606e-14
  16      0.23950231224685
  17    7.0625014081308e-13
  18    -0.073066743046988
  19    1.1219213961509e-12
  20    3.3230085997791e-14
  21      0.44554458645004
  22    5.0788240576598e-13
  23    -0.026082708216302
  24    8.198531242908e-14
  25    1.844171642002e-12
  26    6.0622461229719e-12
  27    2.269464729274e-12
  28    6.415167455338e-13
  29      0.75081189880532
  30    -2.704230608696e-12
  31    2.9062870097785e-12
  32     -0.57306725790622
  33    -2.0688848395442e-12
  34    3.1675607221743e-12
  35     -0.20276169741534
  36    -1.003137414386e-12
  37    -5.2667660598309e-13
  38    4.6171120254866e-14
  39      0.10426961827655
  40    -1.131637816779e-12
  41      0.21321195109786
  42    -2.5893963117067e-13
  43    -6.9582803875709e-13
  44     -0.01970284642782
  45    -2.0239272095039e-12
  46      0.23819331015021
  47    -5.7192800526049e-13
  48    -5.3006032895075e-12
  49    -1.4895154847411e-11
  50    -9.2173407535087e-14
  51    -0.0056606154324565
  52    3.4135692129246e-14
  53    7.2467161143432e-13
  54      -0.1048827289967
  55    -1.6081252379019e-12
 Sym= A
 Ene=              13
 Spin= Alpha
 Occup=    0.00000
   1    -2.6228946280615e-13
   2    -1.6122250276386e-12
   3    -1.3115088580258e-11
   4    -1.4147884717007e-11
   5    -2.8668790181465e-12
   6    -0.017025276344177
   7    1.2299014253276e-13
   8    3.2062591907324e-12
   9     -0.44273670506566
  10    6.0025627349282e-12
  11    1.4686342906961e-11
  12     -0.65536780195578
  13    -2.2497256796354e-12
  14    -1.2370409898742e-12
  15    2.5769221283822e-13
  16      0.21123666487082
  17    -5.2350673460165e-13
  18      0.23416557978268
  19    -2.9880133931252e-12
  20    -9.6460918080663e-13
  21      0.41243285815471
  22    1.7175303000686e-13
  23      0.39012608079461
  24    2.7419624882122e-13
  25    2.1145433761761e-12
  26    1.0271654672874e-11
  27    1.0919820115341e-12
  28    5.5371351833942e-12
  29      0.32330309429452
  30    -2.9270726532458e-12
  31    -1.4500192693278e-12
  32      0.20560068092498
  33    9.5965485584764e-12
  34    -6.1776090910527e-12
  35      0.64368064390516
  36    2.0800472784664e-11
  37    2.4869333543811e-12
  38    -9.3427858150203e-13
  39      0.54070602592857
  40    1.5469540186948e-12
  41     -0.31639439584347
  42    5.7550573760954e-12
  43    1.6767031872732e-12
  44      0.55843160944892
  45    3.0168982358502e-12
  46     -0.23902955203252
  47    3.2385060670186e-12
  48    -3.2636418610025e-12
  49    4.4406407482964e-12
  50    -1.0121166532144e-12
  51      -0.1364302353671
  52    3.7240260877828e-13
  53    -1.0051674083141e-11
  54     0.078596784080851
  55    1.3903516414656e-12
 Sym= A
 Ene=              14
 Spin= Alpha
 Occup=    0.00000
   1    1.1340533603682e-13
   2     1.86182441835e-13
   3    -6.8728344160854e-13
   4    -1.7463812043185e-12
   5    5.1257662435713e-13
   6     -0.28062632532996
   7    -6.5606194515492e-13
   8    2.4446028750934e-12
   9      0.41281712820606
  10    1.9079688670105e-13
  11    2.8278944505479e-12
  12      -0.1357536684735
  13    -1.5786275273689e-12
  14    -1.4531492914867e-12
  15    6.1023727761665e-13
  16      0.53271976129089
  17    8.1389311988247e-13
  18     -0.17352168039651
  19    5.703450217461e-13
  20    -1.8809406949978e-12
  21      0.19548887672842
  22    -8.759556142213e-13
  23     0.071930907853606
  24    1.326478335129e-12
  25    3.713772352135e-12
  26    -1.6741235106641e-13
  27    -4.3005387765554e-13
  28    2.4356267700292e-12
  29     -0.34893063962994
  30    -1.8428581503586e-12
  31    -3.2412978584871e-12
  32      0.92492260648201
  33    1.2736573509308e-12
  34    -1.6875410773074e-12
  35      -0.1722916716725
  36    6.6121504878752e-12
  37    2.3939187265895e-13
  38    -7.6624011646497e-13
  39     -0.10959725105456
  40    7.422053286273e-13
  41     -0.41368776818759
  42    1.7714153235232e-12
  43    -2.5693189959284e-12
  44     -0.26318027540825
  45    -2.3976685232039e-13
  46      0.31438060525906
  47    4.9709093598514e-13
  48    -1.7416288851304e-12
  49    -2.3592137532165e-12
  50    -9.2052924778144e-14
  51     0.014958766589539
  52    -1.3634961485402e-13
  53    -1.3169249930794e-12
  54     -0.51954259271055
  55    -1.0424753132617e-12
 Sym= A
 Ene=              15
 Spin= Alpha
 Occup=    0.00000
   1    2.2122360380255e-12
   2    4.5087957798932e-12
   3    -9.7839851781376e-12
   4    7.705124860699e-12
   5    9.6181429598549e-15
   6     -0.40502390214176
   7    -2.2827207529839e-13
   8    3.439708927591e-12
   9       1.9169713456681
  10    3.783530083813e-12
  11    1.2143345230565e-12
  12     -0.73790558559314
  13    -1.6067239572606e-13
  14    2.0337500662676e-12
  15    2.1986951898208e-12
  16      0.54868732324973
  17    -3.4196582258124e-13
  18      -0.3350742664858
  19    -1.0770147041649e-12
  20    -6.8435614046629e-12
  21      -1.1414683585395
  22    -1.2291194170521e-12
  23     -0.10489183439375
  24    -3.8807609645559e-12
  25    -1.0045775509146e-11
  26    3.2063599894889e-11
  27    9.8467993243203e-12
  28    -5.4090842470455e-12
  29      0.14988538730121
  30    6.0280321075167e-12
  31    5.4607722432136e-12
  32      -1.9906670126469
  33    -4.7986468314171e-12
  34    -8.8569997888764e-13
  35      0.57791585566193
  36    -1.1849054927102e-11
  37    2.8003084368133e-13
  38    2.1792924345839e-12
  39     0.058348590729848
  40    -1.3855600007933e-13
  41      0.41155186306922
  42    9.4458797289267e-13
  43    -3.616370544163e-12
  44     -0.88588129446671
  45    -2.7443616497291e-12
  46     -0.86106746430733
  47    -1.916651786498e-12
  48    -2.4283848310589e-11
  49    3.0840980729122e-12
  50    1.6383124000656e-12
  51    0.00073732854459194
  52    1.007898765286e-12
  53    1.6859496321393e-11
  54      0.72110252926735
  55    -5.4339590153646e-12
 Sym= A
 Ene=              16
 Spin= Alpha
 Occup=    0.00000
   1    0.0012022084472644
   2    -0.032829637047575
   3     -0.11057915124656
   4     -0.47885137505356
   5    -0.083496520442485
   6    -0.011653813512921
   7     -0.11672395790534
   8     -0.15333041643065
   9       0.3962523153024
  10     0.019190960067019
  11       1.4827713829013
  12      0.94713652964484
  13      0.70835494980006
  14     0.024043135669607
  15      0.01207082254857
  16      0.14589340990836
  17     0.033645235528949
  18    -0.014149758497562
  19     0.017559253480739
  20    -0.092891509763993
  21     -0.59273491777617
  22     0.027045545174758
  23     0.062474360133918
  24    -0.0010711389671386
  25     -0.02744750452999
  26     0.071323704108824
  27      0.91442857860618
  28    -0.010128352981806
  29     0.020437122584793
  30    -0.030884033584574
  31     0.031816863227692
  32     -0.64881356863389
  33      0.15840056594612
  34      -1.2160466565058
  35     -0.97871100854144
  36    -0.055308888857682
  37    -0.025653705690924
  38    0.00062888493505752
  39      0.05587333605309
  40    -0.052070115384893
  41     0.016053545234869
  42     0.043112655868585
  43     -0.10756126134156
  44     -0.45913775640538
  45     -0.13326234057627
  46     -0.55968039100537
  47    0.00056668290958413
  48      0.26524294466953
  49      0.05327895706597
  50    0.0078258938330391