[Molden Format]
made by pyscf v[2.13.1]
[Atoms] (AU)
O   1   8     0.21099695469856     0.00000000000000     2.15462460678861
N   2   7    -0.44776862100326     0.00000000000000    -0.03589262653049
H   3   1     1.18163474748449     0.00000000000000    -1.17386889907833
[GTO]
1 0
 s    8 1.00
                 11720  0.00070964594651845
                  1759  0.0054672722921914
                 400.8   0.027823118610189
                 113.7    0.10474773971146
                 37.03    0.28292084635691
                 13.27    0.44849523869833
                 5.025    0.27081688521277
                 1.013    0.01545029160744
 s    8 1.00
                 11720  -0.00031444341168873
                  1759  -0.0024821376810179
                 400.8  -0.012316355381583
                 113.7  -0.050538917343672
                 37.03   -0.13938490331632
                 13.27   -0.32507749481778
                 5.025   -0.22984830758785
                 1.013     1.0953793467883
 s    1 1.00
                0.3023                   1
 s    1 1.00
               0.07896                   1
 p    3 1.00
                  17.7   0.062679166281506
                 3.854    0.33353656587936
                 1.046    0.74123964163973
 p    1 1.00
                0.2753                   1
 p    1 1.00
               0.06856                   1
 d    1 1.00
                 1.185                   1
 d    1 1.00
                 0.332                   1

2 0
 s    8 1.00
                  9046  0.00069961741342552
                  1357  0.0053860546299287
                 309.3   0.027391021189057
                 87.73    0.10315059198201
                 28.56    0.27857066331743
                 10.21    0.44829484945412
                 3.838    0.27808592839527
                0.7466   0.015431561233271
 s    8 1.00
                  9046  -0.00030499009595337
                  1357  -0.0024080263785077
                 309.3   -0.01194444872518
                 87.73  -0.048925992909017
                 28.56   -0.13447272472496
                 10.21   -0.31511257770011
                 3.838   -0.24285783254964
                0.7466     1.0943822068542
 s    1 1.00
                0.2248                   1
 s    1 1.00
               0.06124                   1
 p    3 1.00
                 13.55   0.058905676772132
                 2.917    0.32046110671427
                0.7973    0.75304206179207
 p    1 1.00
                0.2185                   1
 p    1 1.00
               0.05611                   1
 d    1 1.00
                 0.817                   1
 d    1 1.00
                  0.23                   1

3 0
 s    3 1.00
                 13.01   0.033498726389998
                 1.962    0.23480080117413
                0.4446     0.8136829578829
 s    1 1.00
                 0.122                   1
 s    1 1.00
               0.02974                   1
 p    1 1.00
                 0.727                   1
 p    1 1.00
                 0.141                   1

[5d]
[7f]
[9g]

[MO]
 Sym= A
 Ene=               0
 Spin= Alpha
 Occup=    1.00000
   1    -0.00080015296406355
   2    -0.0091444779404027
   3    -0.025707024101216
   4    -0.025891956610767
   5      0.52632174816805
   6    4.7158780222411e-14
   7      -0.0826608398134
   8       0.4109469839712
   9    3.3722988353259e-14
  10    -0.060569210335649
  11     0.087253590088039
  12    3.9053115656189e-15
  13    -0.010163881803928
  14    -0.0025816626686179
  15    -0.0024106591728807
  16    -2.6746341961926e-15
  17    -0.00074195497248393
  18    -6.9737282527219e-16
  19    0.00058173918009595
  20    -0.013330240788537
  21    -4.1127460767891e-15
  22    -0.0041493909007335
  23    -1.0754264711938e-15
  24    0.0014272769464674
  25      0.10900817898841
  26      0.26636711642976
  27      0.12863342614936
  28     -0.36770521625045
  29    3.7446081986135e-14
  30    -0.045893265311831
  31     -0.26821298009581
  32    2.2275884713996e-14
  33    -0.0040585838524521
  34    -0.049953568976903
  35    6.9404869765405e-16
  36    -0.0037371833997932
  37    -0.011861216980837
  38     0.024798959475609
  39    3.7910068773074e-15
  40    -0.0090455589194873
  41    2.0822123918569e-15
  42     0.013381769202978
  43    9.3596250071802e-05
  44    -4.0249790531918e-16
  45    -0.0075236623675233
  46    1.1362948180114e-15
  47     -0.25694497881336
  48     -0.13835787625745
  49    -0.024092579008246
  50     0.010405052529118
  51    1.0466091052482e-15
  52    -0.014041239395145
  53    -0.0071391994591426
  54    -1.875003864527e-16
  55     0.019403251085255
 Sym= A
 Ene=               1
 Spin= Alpha
 Occup=    1.00000
   1    -0.00052119982393954
   2    -0.016114383469683
   3    -0.033209864285544
   4    -0.015362595091969
   5     -0.39402419602757
   6    3.1753305908353e-13
   7      0.13629816368189
   8     -0.24054686445909
   9    2.275390267269e-13
  10      0.10122744959653
  11    -0.0045369139168526
  12    2.2174666616374e-14
  13    0.0083643965333261
  14    -0.009362302074371
  15     0.016997394166899
  16    -1.8400570615016e-14
  17    0.0047320661267059
  18    -4.9102292754531e-15
  19    -0.013039174448325
  20     0.018507967010078
  21    -2.7294936920289e-14
  22    0.0017101396659489
  23    -6.2266631735412e-15
  24    0.00033964734548215
  25      0.13965883993099
  26      0.22274275480376
  27     0.025401989574998
  28     -0.41383763435156
  29    2.5166092551922e-13
  30     0.006245047393899
  31     -0.19266213904726
  32    1.4910600880163e-13
  33     -0.01435570867921
  34     -0.01889053637154
  35    1.1104935329366e-14
  36    0.0035185851450544
  37     0.015585033705452
  38    -0.016991879908283
  39    2.5795172023564e-14
  40    -0.020200986314823
  41    1.3418590779436e-14
  42    -0.0026251077845399
  43    0.0094845017357892
  44    -1.9960635409549e-15
  45    -0.00013690559567688
  46    8.6865503103392e-15
  47     -0.17176555293077
  48     -0.01736053746033
  49    0.0015742799980674
  50    0.0099252220273888
  51    6.8252165392107e-15
  52    -0.014062923186509
  53    -0.0071931882094026
  54    -1.7192219855687e-15
  55    0.0013097158700209
 Sym= A
 Ene=               2
 Spin= Alpha
 Occup=    1.00000
   1    4.9879417528019e-14
   2    -3.1656091785562e-13
   3    -3.9596673774648e-13
   4    -7.133268778826e-14
   5    2.1869261104599e-13
   6      0.46121976843488
   7    -8.1218873762912e-14
   8    1.3043108898955e-13
   9      0.32974340462069
  10    -2.7698981766444e-14
  11    -4.7856131904418e-15
  12     0.030802567338183
  13    3.272331559657e-15
  14    1.644297537761e-15
  15    -1.4601216110718e-14
  16    -0.026824120160976
  17    -3.9119743398657e-15
  18    -0.0071124454579522
  19    3.2572015306076e-16
  20    -1.5546228856298e-14
  21    -0.038877470563028
  22    -2.2865957641915e-15
  23    -0.0090210235614492
  24    6.6993686456016e-14
  25    -1.3419306730294e-13
  26    -8.4762252516235e-14
  27    2.9188831021281e-14
  28    3.0561489927318e-13
  29      0.36554341648903
  30    -1.308139862271e-13
  31    1.6986233609031e-13
  32      0.21781160050653
  33    3.7038662137116e-14
  34    2.4103511034861e-14
  35     0.017054177082775
  36    1.4890438311485e-14
  37    -2.5377749761022e-14
  38    -5.0659276459651e-15
  39     0.037460083469865
  40    1.6238123198405e-14
  41     0.019463655437898
  42    1.743032216588e-14
  43    3.8268588651218e-15
  44    -0.0022756620392066
  45    2.929914752605e-15
  46     0.013052508618961
  47    1.8808710111205e-13
  48    4.7076813357328e-14
  49    -3.3207584600368e-15
  50    -1.0501181726828e-14
  51    0.0098714669262827
  52    1.0350214415801e-14
  53    -8.3393314475105e-16
  54    -0.0027623694064091
  55    1.479960707998e-15
 Sym= A
 Ene=               3
 Spin= Alpha
 Occup=    1.00000
   1     0.002315312128794
   2     -0.16102965173291
   3     -0.17482303270591
   4    0.0063300396824239
   5     0.068209281945979
   6    -1.6174693514138e-13
   7      0.32262389588556
   8     0.044304582328734
   9    -1.1587273583593e-13
  10      0.21170766451937
  11    -0.0088778145821595
  12    -1.0825736241769e-14
  13    0.0068358267970454
  14    -0.014511504922116
  15    -0.010278251700928
  16    9.3836329132838e-15
  17    -0.0014917788515968
  18    2.4557102421399e-15
  19    -0.013945430880319
  20    -0.012774913362293
  21    1.3748858740176e-14
  22    -0.0015910126890891
  23    3.2423065839619e-15
  24    -0.021737016585125
  25      0.11487451715846
  26      0.25677459032802
  27     0.021377704696412
  28    -0.008058520105161
  29    -1.286122333108e-13
  30     -0.45458771324917
  31     -0.01904954901631
  32    -7.6270783238875e-14
  33     -0.11560598351385
  34    0.0017744735928934
  35    -6.4555261055953e-15
  36    -0.0017568732839408
  37     -0.03182035694506
  38    -0.037011192516518
  39    -1.3172625762151e-14
  40    0.0058704878905894
  41    -6.7833376419208e-15
  42     0.020173379938724
  43    0.0058397833873377
  44    9.0270950433543e-16
  45    -0.0095644697523447
  46    -4.637202059365e-15
  47      0.26993477074677
  48      0.06627778537561
  49    0.0018319813778866
  50    -0.026303424060957
  51    -3.4832677609071e-15
  52     0.010073299030503
  53    -0.0026594739305932
  54    1.1525952732226e-15
  55    0.0089423124112308
 Sym= A
 Ene=               4
 Spin= Alpha
 Occup=    1.00000
   1      0.03055905769048
   2      0.24814817562801
   3      0.39670163561974
   4     0.086274999308714
   5     0.071052359961128
   6    1.1696562528665e-13
   7      0.38969548570229
   8     0.028517387873703
   9    8.5497393430276e-14
  10      0.19206830889116
  11    -0.0055482006719958
  12    7.6250894828637e-15
  13    -0.0023613233481911
  14    -0.020680132336207
  15    -0.0091446438491451
  16    -6.6677541289394e-15
  17    0.00075212875963845
  18    -1.7350036561378e-15
  19    -0.015592357469758
  20    -0.0052985483550534
  21    -1.0855919184233e-14
  22    0.00022183075606524
  23    -2.6472868588282e-15
  24    -0.064723520173818
  25     -0.33133527704179
  26     -0.28791493419873
  27    -0.045697924628282
  28    -0.074562836283477
  29    9.2608625484375e-14
  30    -0.097169008969449
  31    -0.014743949892485
  32    5.3573939569352e-14
  33     -0.06044693383609
  34    -0.0036833684401382
  35    4.4710471104503e-15
  36    -0.0092034387334312
  37    -0.0091425541942602
  38    -0.0076522456940858
  39    9.4761997529054e-15
  40    -0.0055945931721098
  41    4.9210034328692e-15
  42    -0.009248447478473
  43    -0.016916117856823
  44    -1.8142138611886e-15
  45    0.0050962618954137
  46    2.8260277342319e-15
  47      -0.1196116717041
  48     0.023714723436385
  49    0.0036690729636708
  50     0.016762806086436
  51    2.5804438179734e-15
  52    -0.013024254800284
  53    -0.0092276762185742
  54    -6.5508420685229e-16
  55    0.0099424384435452
 Sym= A
 Ene=               5
 Spin= Alpha
 Occup=    1.00000
   1    -0.033042186629821
   2        0.375351700732
   3      0.44160058668746
   4      0.04829224823738
   5    0.0078883028400482
   6    2.5683802951919e-13
   7       0.0161150837921
   8    0.0053272029118918
   9    1.8340371885513e-13
  10    -0.0022748088025485
  11    -0.0010672404583981
  12    1.7562056026116e-14
  13    0.0047266604480265
  14    0.0093846833028858
  15    0.0033553619970696
  16    -1.481807135012e-14
  17    0.00011635412406599
  18    -3.9466408655221e-15
  19     0.010559223706857
  20    0.00079491585335017
  21    -2.1983991161306e-14
  22    0.0013572317498945
  23    -4.9812188602795e-15
  24     -0.14417843806024
  25      0.27175747315047
  26      0.14028590625213
  27    -0.0066610255645837
  28     0.058956542269922
  29    2.0334276109486e-13
  30    -0.0056319321784552
  31    -0.016456270913759
  32    1.2110228949342e-13
  33     -0.06912955470865
  34     0.001543914387962
  35    9.0717804219266e-15
  36    -0.010300928073358
  37     0.013116430384915
  38     0.005917088323786
  39    2.0859168676788e-14
  40    0.0035392554334348
  41    1.0776718802831e-14
  42    -0.0084048213765764
  43    -0.0015219789421094
  44    -1.3304830904341e-15
  45    -0.010511791324966
  46    7.263986357685e-15
  47      0.14879074017925
  48    -0.0043711709292584
  49    -0.00010062372474761
  50    -0.020017750241275
  51    5.5431326298902e-15
  52     0.013360471182586
  53    0.0098680058435519
  54    -1.6422138516951e-15
  55    -0.0057629841562283
 Sym= A
 Ene=               6
 Spin= Alpha
 Occup=    1.00000
   1      0.05454616865833
   2     0.065603772559774
   3     0.079660428140987
   4     0.010159301633084
   5    0.0052738973307813
   6    9.2099046846324e-15
   7     0.033011621038428
   8    0.0034268576342808
   9    3.9002775018601e-15
  10     0.018977535978691
  11    -0.0005783582397857
  12    -1.3499043442005e-15
  13    0.0011487887052778
  14    -0.00052375057826292
  15    -0.00031630143092365
  16    -1.2836164843422e-15
  17    2.4441126081916e-05
  18    -3.9109623474808e-16
  19    -0.0010295914363232
  20    -0.0011323295012726
  21    2.0982209031459e-15
  22    -1.2219034468329e-05
  23    5.2050102853894e-16
  24      0.98736865946591
  25     0.024420163755643
  26    0.0045135182937551
  27    -0.0044630778795928
  28    0.0039723091036538
  29    7.2910558346714e-15
  30    -0.014896421478149
  31    -0.0066591012797054
  32    7.8469426050653e-15
  33    -0.013688854356359
  34    -0.00070270300518761
  35    1.8437168059725e-15
  36    -0.0013643023080017
  37    0.0012990239773161
  38    -0.00039009943237928
  39    9.0090874962299e-16
  40    0.00075851803164397
  41    4.286922983488e-16
  42    -0.0014180063089305
  43    -0.00084839932484371
  44    2.3139244719497e-15
  45    -0.0017151220184155
  46    1.3539641761605e-15
  47     0.019067296330404
  48    0.0082363234005407
  49     0.000841912041304
  50    -0.0018373998538767
  51    8.5941659021065e-17
  52    0.00091611235531925
  53    -0.0012589646614358
  54    -4.5760314931433e-16
  55    0.0015655156968893
 Sym= A
 Ene=               7
 Spin= Alpha
 Occup=    1.00000
   1      0.99963181448074
   2    0.0013737419728606
   3    -0.021258884310249
   4    -0.006766979973628
   5    -0.0026555332817091
   6    -1.767756496544e-14
   7      -0.0132806612338
   8    0.0011248134267979
   9    -1.2705961278137e-14
  10    0.0020310669869755
  11    0.00045276874436649
  12    -1.1698363118271e-15
  13    0.00091828058294447
  14    0.0010735151939562
  15    0.00039794935696717
  16    1.0778139697813e-15
  17    0.00028860879458071
  18    2.597518127575e-16
  19    -0.0010980681969023
  20    -0.00065351156446933
  21    1.4637781152257e-15
  22    -9.8384995009957e-05
  23    3.2820521566544e-16
  24    -0.056406080314452
  25     0.014274954252204
  26     0.022886373275462
  27    0.0047550861916758
  28    0.0032337590483444
  29    -1.4035864447982e-14
  30    0.0029085970869202
  31    0.0026682657342181
  32    -8.3821707798947e-15
  33    0.0090862388442629
  34    0.00024791883640095
  35    -7.3044558216091e-16
  36    0.0011315297072651
  37    0.00020962782616817
  38    7.7111999268608e-05
  39    -1.452949857047e-15
  40    0.00019654045056418
  41    -7.5349708016206e-16
  42    0.0023129658846985
  43    0.0020539961131936
  44    8.362834274523e-17
  45    -2.7068125352806e-05
  46    -5.0323424473355e-16
  47    0.0059840402958526
  48    0.00046897122178445
  49    -0.0002961326168606
  50    -0.00076325354009423
  51    -3.7580777478318e-16
  52    0.00040282969765499
  53    -0.00010041154803981
  54    1.1429054802775e-16
  55    -0.00033878646014825
 Sym= A
 Ene=               8
 Spin= Alpha
 Occup=    0.00000
   1    -1.094079515008e-14
   2    -1.2715955778368e-14
   3    2.7850978492759e-13
   4    4.8485171961742e-13
   5    -3.4497941794666e-15
   6     -0.48982769574367
   7    -8.8055722452348e-15
   8    -5.7457171892102e-14
   9     -0.38273771169004
  10    -1.5703118724878e-13
  11    -2.2254116579392e-13
  12     -0.10692065297686
  13    -2.464836085405e-13
  14    -4.3038390756759e-15
  15    1.0493540883468e-15
  16    -0.0095186524155645
  17    1.5580874954406e-15
  18    -0.0026078283740895
  19    3.3734428823335e-14
  20    3.4601113912856e-14
  21    0.00024416448197955
  22    -1.5775177171568e-14
  23    -0.005368508215224
  24    -1.0262523766751e-14
  25    -7.2501342954621e-14
  26    -4.30717158008e-13
  27    -5.2524458101447e-13
  28    -6.1739260956432e-14
  29       0.5184928367826
  30    5.3885513488512e-14
  31    -2.1229508512135e-13
  32      0.44997909099487
  33    -2.5687058726726e-13
  34    3.3092767292282e-13
  35      0.12222775779833
  36    -2.5502366898451e-13
  37    2.5583310888916e-15
  38    -4.9574792902569e-15
  39    -0.015089295999163
  40    1.4700262016835e-15
  41     0.013382315969497
  42    -8.3813748249748e-14
  43    -4.9038350192309e-14
  44    -0.0041466542987891
  45    -2.1735572613132e-14
  46     0.022649507317967
  47    1.5483634456136e-14
  48    4.024967517859e-14
  49    2.8479525753253e-13
  50    8.0209263588297e-15
  51     0.019095338244495
  52    3.2695847943233e-16
  53    1.5659615641484e-14
  54     0.022962615879363
  55    1.4994157773321e-13
 Sym= A
 Ene=               9
 Spin= Alpha
 Occup=    0.00000
   1     8.66638081897e-14
   2    1.7469973272575e-13
   3    -1.2273314217419e-12
   4    -3.0978199793922e-13
   5    -1.0296825502975e-13
   6     -0.62087241667564
   7    -1.8755387458184e-13
   8    1.1027151568543e-13
   9      0.23680559456026
  10    6.8050497108809e-13
  11    4.0310778779873e-14
  12      0.35656553976638
  13    2.8614210162403e-13
  14    -1.2620338835156e-14
  15    -1.1936593236471e-14
  16    -0.079848817965273
  17    2.4784152621792e-14
  18    -0.028323746870251
  19    -1.8132969609082e-13
  20    2.9865419777384e-14
  21     -0.21700255004708
  22    2.3237302632582e-15
  23    -0.042285859436756
  24    2.4567795215029e-15
  25    2.2097363221377e-13
  26    2.2569515575001e-12
  27    4.9203283112775e-13
  28    9.1327868804242e-14
  29     -0.49753473583238
  30    -5.4377155773277e-13
  31    6.8919945418291e-13
  32      0.19084942233527
  33    8.6641645254258e-13
  34    6.3080314865661e-13
  35    -0.030497431734211
  36    3.6806559363292e-13
  37    5.8954200054042e-14
  38    -2.9004345163808e-14
  39      0.18515540159054
  40    -1.1711022550686e-13
  41    -0.020644662417643
  42    1.7625153972304e-13
  43    3.4740276965642e-13
  44      0.34888930087191
  45    1.3590547017498e-13
  46     0.029048329751585
  47    -3.1439643977123e-13
  48    -1.0615301732124e-12
  49    -6.7127021456412e-13
  50    5.4325476245541e-14
  51    -0.00054109060821847
  52    8.1427591243915e-14
  53    2.9394892845352e-13
  54     0.036512799228307
  55    -8.8250182653875e-13
 Sym= A
 Ene=              10
 Spin= Alpha
 Occup=    0.00000
   1    -0.0012193679946452
   2      0.02790631307454
   3     -0.16278979172885
   4      0.38718083573648
   5     -0.59597504762143
   6    8.7668655061989e-13
   7    -0.003765909708998
   8      0.33914119614406
   9    -1.4266692490912e-12
  10     -0.16591882542884
  11       0.4642000696805
  12    1.697243459141e-12
  13     -0.18023939953852
  14    0.0054989858176447
  15    -0.044824867836632
  16    2.6359952408705e-13
  17    -0.034190066769117
  18    1.7114655949684e-13
  19     0.038466670641558
  20    -0.093525864377402
  21    5.8707942991813e-13
  22    -0.067134003181709
  23    1.1708458595613e-13
  24     0.048314616666973
  25      0.10728297790142
  26     -0.19986100914439
  27     -0.69034653009091
  28     -0.33127383688056
  29    7.2493126477313e-13
  30     -0.30867834676096
  31     -0.11493243711339
  32    -2.9628884936884e-13
  33      0.23016905649022
  34     -0.18466355978727
  35    2.2712328548586e-12
  36     0.002477085702671
  37     -0.10488394143369
  38      0.11439676931133
  39    -6.4974465838553e-13
  40     -0.11872994010807
  41    2.9654866699658e-13
  42      0.12974615772376
  43      0.21196084553176
  44    -3.5985936327326e-13
  45     -0.20528439041472
  46    -2.3692805498937e-13
  47      0.09149715300047
  48      0.39963365320327
  49      0.05130377558617
  50    0.0074098353081142
  51    -3.307709766502e-13
  52     0.059071188205469
  53      0.11373503140629
  54    -2.0505113627224e-12
  55      0.17479424288697
 Sym= A
 Ene=              11
 Spin= Alpha
 Occup=    0.00000
   1    1.8889111750865e-13
   2     7.02007178719e-13
   3    -4.3346545717857e-13
   4    -2.8976426390335e-11
   5    -1.9007976019907e-13
   6      0.14312848034389
   7    -1.5861887649621e-12
   8    7.9100097513942e-13
   9    -0.096340118881919
  10    1.9480863227594e-12
  11    -6.8030246034469e-13
  12    -0.027993771305234
  13    8.4284248358922e-12
  14    -3.1190562308025e-13
  15    -2.2010256874874e-13
  16    -0.0057882030541969
  17    3.8514505489679e-14
  18    -0.0015845041637907
  19    -1.4273635537325e-13
  20    3.5658996225081e-13
  21     0.012287423241144
  22    -7.4731176429566e-13
  23     -0.11291898998222
  24    3.6990784779841e-13
  25    6.5756554860902e-13
  26    -6.6820634679551e-13
  27    3.0559291200879e-11
  28    7.5915683617264e-13
  29     -0.54681341923074
  30    -1.7565988490518e-12
  31    7.2829632427982e-13
  32      0.38479948428797
  33    2.0118107060142e-12
  34    4.8043660306152e-12
  35      0.18157910299728
  36    7.2719011347363e-12
  37    1.9656943629578e-13
  38    3.071902453688e-13
  39     -0.39339044071298
  40    -1.879914789493e-13
  41      0.26050523897146
  42    1.5047974966451e-12
  43    -5.8058949093591e-13
  44     -0.21157140903938
  45    -6.9505095795833e-15
  46      0.36263990040271
  47    -2.7409686976923e-12
  48    2.8408561992699e-12
  49    -3.849997247895e-12
  50    8.9140390100814e-14
  51     0.013237211140905
  52    -1.5115452722183e-13
  53    -5.751124585775e-13
  54      0.14044345183605
  55    2.7257368236105e-12
 Sym= A
 Ene=              12
 Spin= Alpha
 Occup=    0.00000
   1    3.5489703428471e-13
   2    1.2139494682202e-12
   3    2.5081325484618e-12
   4    -2.5595209708683e-11
   5    -2.73629088317e-12
   6      0.15891790303811
   7    -3.8365208410765e-12
   8    1.2983404826899e-12
   9     0.058237127873898
  10    5.7502611157069e-13
  11    9.4245561665272e-14
  12     -0.21994761979125
  13    -7.5805263391752e-13
  14    -1.0197896252298e-12
  15    -9.26925252204e-13
  16    -0.056250661015667
  17    -9.4844546284543e-14
  18      0.19136632789065
  19    -2.697859846163e-14
  20    1.3209300706352e-12
  21     -0.19827974658886
  22    9.0628304434536e-13
  23      0.44666719282861
  24    -1.2600086115441e-12
  25    -4.4813443805918e-12
  26    4.445979159914e-13
  27    5.2521930693564e-11
  28    1.8919919448555e-12
  29     -0.18984222928395
  30    -1.4934901099268e-12
  31    4.8056588491669e-12
  32    -0.061448721086503
  33    -5.7660331954868e-12
  34    7.0395293197354e-12
  35      0.67087889817854
  36    1.0703192694277e-11
  37    1.0391376380109e-12
  38    1.0143989381068e-12
  39      -0.1294041744127
  40    -8.6022900970312e-13
  41     -0.25256147609466
  42    -1.6692642648242e-12
  43    -1.0646761215888e-12
  44      -0.1288256152866
  45    2.2767160277283e-12
  46     -0.59874855003433
  47    9.4818740070533e-13
  48    -2.6251553280937e-11
  49    -8.1240366299334e-12
  50    -1.1620966199406e-12
  51     -0.12419245487686
  52    3.1984929801984e-13
  53    8.022626256246e-13
  54     0.021792334493675
  55    -2.2779301697649e-12
 Sym= A
 Ene=              13
 Spin= Alpha
 Occup=    0.00000
   1    3.6754567924474e-12
   2    6.8336749181977e-12
   3    -2.0269606460022e-11
   4    9.5805805601552e-11
   5    3.5382365600949e-12
   6     0.091313994928342
   7    1.6917092099271e-12
   8    -3.0590028112581e-12
   9     -0.32185210697626
  10    2.5540668465558e-12
  11    -1.3784146701755e-13
  12      -0.3519918077974
  13    -1.3345069848126e-11
  14    -8.5841812547485e-12
  15    -3.8937770542703e-12
  16    -0.096283999330919
  17    -1.4839273315402e-12
  18     -0.16169412999675
  19    2.9805450552409e-13
  20    -1.5477459138473e-12
  21     -0.25550767168937
  22    -2.1756660890868e-12
  23      0.59611066646176
  24    -1.4510318916284e-12
  25    -3.868347443999e-12
  26    5.8200293837249e-12
  27    -1.1627986977778e-10
  28    -1.3866700279259e-13
  29      0.17796142706282
  30    7.3241407713135e-12
  31    -1.3361874766992e-11
  32      0.09869488706657
  33    5.8983288626242e-12
  34    -1.4873693829083e-11
  35      0.59543796190834
  36    -2.8569460233722e-11
  37    8.4715679214157e-12
  38    6.001019862695e-13
  39    -0.043482549340042
  40    1.1915407855542e-13
  41      0.27709339344952
  42    -8.9195944116571e-12
  43    3.4764920802518e-12
  44      0.20509033983982
  45    -2.8377930645496e-13
  46      0.43311982359048
  47    9.4236253591457e-12
  48    2.6848218820583e-11
  49    1.3578166098014e-11
  50    -1.7325244211465e-12
  51      -0.4262493718417
  52    -1.7861403284128e-12
  53    -2.1909718255753e-12
  54       -0.430700292513
  55    -1.0209888744032e-12
 Sym= A
 Ene=              14
 Spin= Alpha
 Occup=    0.00000
   1    -1.639938811443e-12
   2    -2.5595029543546e-12
   3    8.2024863805657e-12
   4    -9.8243757139636e-11
   5    -4.5880851277964e-12
   6     -0.20698042679145
   7    -4.5709262451007e-12
   8    5.8771679813717e-12
   9      0.46733089641147
  10    6.7989496240744e-12
  11    6.0483460877047e-12
  12      0.37936934380747
  13    1.6076016971961e-11
  14    3.4788488233483e-12
  15    7.1871450321691e-13
  16     0.096717324545056
  17    1.8494207592889e-12
  18      0.19155865512548
  19    1.270117691385e-12
  20    -1.9403166177331e-12
  21    0.0029296193253868
  22    1.8556357892989e-12
  23    -0.060271499969945
  24    1.1563133290112e-12
  25    1.9536179096143e-12
  26    8.189960500548e-13
  27    1.2092411587445e-10
  28    2.7565559606378e-13
  29      0.66772333911493
  30    -4.0008427483026e-12
  31    9.799919121596e-12
  32      -1.6235101337285
  33    7.7628965047882e-12
  34    1.1856056285017e-11
  35      0.17743552357363
  36    2.759003561771e-11
  37    -3.1283404332056e-12
  38    -1.2979071039961e-12
  39     -0.12322296067614
  40    -1.0387998727118e-13
  41      0.45036851394237
  42    2.6073275375536e-12
  43    1.9818422099335e-12
  44     0.069455439130028
  45    -4.8410980456106e-13
  46     -0.57716335883698
  47    -1.4648126186288e-12
  48    -2.1652624280228e-11
  49    -1.7682354041692e-11
  50    -2.0544476029042e-12
  51     0.057894866495553
  52    -1.2461135040461e-12
  53    -2.6965404768954e-12
  54      0.81611421599935
  55    -6.4244904339949e-12
 Sym= A
 Ene=              15
 Spin= Alpha
 Occup=    0.00000
   1    2.477405577537e-12
   2    6.1173776726755e-12
   3    -1.9045020947752e-11
   4    -6.6917366920071e-11
   5    -1.8139809870289e-13
   6     0.020657662255614
   7    2.4333155801404e-12
   8    -5.2081745432993e-12
   9     -0.31381370825381
  10    1.6664107338373e-11
  11    1.0733977869888e-11
  12      0.22551501470683
  13    9.3953807929024e-12
  14    2.2728113783787e-12
  15    -2.2544932868217e-12
  16      -0.1521123201448
  17    4.6682104942567e-12
  18       1.0598447027176
  19    -5.0110188801433e-12
  20    -1.4627052103196e-14
  21      0.19241358216297
  22    -3.6672101765282e-12
  23     -0.37651145460018
  24    -1.5184592245953e-12
  25    -3.1514796441053e-12
  26    2.2725439038156e-11
  27    1.2491778512608e-11
  28    -7.5985200166913e-12
  29    -0.042942160984696
  30    3.8093780246291e-12
  31    1.4978961101984e-11
  32      0.34015797418353
  33    2.6987407554004e-11
  34    -1.2464990392073e-11
  35     -0.45658807086037
  36    3.1871890779717e-11
  37    -4.8179191942983e-13
  38    -4.3257521759087e-12
  39      0.15293089952773
  40    -1.6043873410263e-12
  41    -0.093023455019964
  42    -4.1452806049922e-12
  43    1.7817087581759e-11
  44      0.13662249700141
  45    9.2159876249659e-12
  46      0.32010029173776
  47    5.7025641805052e-13
  48    3.6047160076661e-11
  49    1.7633385226373e-11
  50    -4.6477381289401e-12
  51      0.13335064346782
  52    4.3151121105549e-13
  53    -1.022736428795e-11
  54    -0.00069096193836991
  55    -1.3007215136368e-11
 Sym= A
 Ene=              16
 Spin= Alpha
 Occup=    0.00000
   1    -0.0028926725571136
   2     0.018262860127802
   3     0.084326019841807
   4       1.3317426746966
   5    -0.015517587712832
   6      0.14069807295132
   7     0.012417075191962
   8     0.078527569730034
   9     -0.40671492654238
  10    -0.076463921681304
  11     -0.67802257754703
  12       1.8522341509103
  13     -0.62678167035573
  14    -0.00053094463628399
  15    -0.012254076173438
  16     0.016602422263484
  17    -0.0056123840736638
  18     -0.15521524699147
  19      0.02745934060798
  20     0.032485476422462
  21     -0.14106661340979
  22    0.0035499336734425
  23      0.26896068474094
  24      0.01538467309364
  25     0.047393432655746
  26     -0.26426025700128
  27      -2.5454921932976
  28    -0.038410850613946
  29     0.010364166404834
  30    -0.071212959563724
  31    -0.093087006430172
  32      0.20415535058986
  33    -0.093800619840176
  34     0.028917704896993
  35      -1.6237990375685
  36    -0.091840381241415
  37    -0.013857578031339
  38     0.008146130964654
  39     -0.14123808597096
  40    -0.014633896733843
  41    -0.038581337889829
  42    -0.030731957149382
  43     0.078956460799975
  44     -0.25895423885674
  45    -0.019343293702118
  46     -0.11432544203282
  47    0.0085038660493729
  48      0.47464151657447
  49      0.76085909990244
  50    -0.0084302219416582
  51     -0.12804392304899