[Molden Format]
made by pyscf v[2.13.1]
[Atoms] (AU)
O   1   8     0.21099695469856     0.00000000000000     2.15462460678861
N   2   7    -0.44776862100326     0.00000000000000    -0.03589262653049
H   3   1     1.18163474748449     0.00000000000000    -1.17386889907833
[GTO]
1 0
 s    8 1.00
                 11720  0.00070964594651845
                  1759  0.0054672722921914
                 400.8   0.027823118610189
                 113.7    0.10474773971146
                 37.03    0.28292084635691
                 13.27    0.44849523869833
                 5.025    0.27081688521277
                 1.013    0.01545029160744
 s    8 1.00
                 11720  -0.00031444341168873
                  1759  -0.0024821376810179
                 400.8  -0.012316355381583
                 113.7  -0.050538917343672
                 37.03   -0.13938490331632
                 13.27   -0.32507749481778
                 5.025   -0.22984830758785
                 1.013     1.0953793467883
 s    1 1.00
                0.3023                   1
 s    1 1.00
               0.07896                   1
 p    3 1.00
                  17.7   0.062679166281506
                 3.854    0.33353656587936
                 1.046    0.74123964163973
 p    1 1.00
                0.2753                   1
 p    1 1.00
               0.06856                   1
 d    1 1.00
                 1.185                   1
 d    1 1.00
                 0.332                   1

2 0
 s    8 1.00
                  9046  0.00069961741342552
                  1357  0.0053860546299287
                 309.3   0.027391021189057
                 87.73    0.10315059198201
                 28.56    0.27857066331743
                 10.21    0.44829484945412
                 3.838    0.27808592839527
                0.7466   0.015431561233271
 s    8 1.00
                  9046  -0.00030499009595337
                  1357  -0.0024080263785077
                 309.3   -0.01194444872518
                 87.73  -0.048925992909017
                 28.56   -0.13447272472496
                 10.21   -0.31511257770011
                 3.838   -0.24285783254964
                0.7466     1.0943822068542
 s    1 1.00
                0.2248                   1
 s    1 1.00
               0.06124                   1
 p    3 1.00
                 13.55   0.058905676772132
                 2.917    0.32046110671427
                0.7973    0.75304206179207
 p    1 1.00
                0.2185                   1
 p    1 1.00
               0.05611                   1
 d    1 1.00
                 0.817                   1
 d    1 1.00
                  0.23                   1

3 0
 s    3 1.00
                 13.01   0.033498726389998
                 1.962    0.23480080117413
                0.4446     0.8136829578829
 s    1 1.00
                 0.122                   1
 s    1 1.00
               0.02974                   1
 p    1 1.00
                 0.727                   1
 p    1 1.00
                 0.141                   1

[5d]
[7f]
[9g]

[MO]
 Sym= A
 Ene=               0
 Spin= Alpha
 Occup=    1.00000
   1    2.1598446523707e-15
   2    3.5215613962873e-14
   3     5.00218806373e-14
   4    -1.8361296698559e-14
   5    2.8543156127495e-14
   6      0.46121976843488
   7    1.6567914163164e-13
   8    2.1797575099845e-14
   9      0.32974340462069
  10    1.0588673554437e-13
  11    2.8589037624888e-15
  12     0.030802567338183
  13    9.5786359228407e-15
  14    -7.7638785513697e-15
  15    -2.92493578593e-15
  16    -0.026824120160976
  17    1.1967438616934e-16
  18    -0.0071124454579522
  19    -8.4292343181494e-15
  20    -4.1674155606211e-15
  21    -0.038877470563028
  22    -5.1338242718795e-16
  23    -0.0090210235614492
  24    -1.2154661056743e-15
  25    1.1669797188703e-14
  26    7.0557482278103e-14
  27    4.2313718055649e-14
  28    -6.2859834885821e-14
  29      0.36554341648903
  30    -1.4213072032147e-13
  31    -3.5466016995288e-14
  32      0.21781160050653
  33    -3.6765805468073e-14
  34    1.0548222634883e-15
  35     0.017054177082774
  36    6.4237535941042e-15
  37    -8.104155558097e-15
  38    -1.0736960026546e-14
  39     0.037460083469865
  40    -1.2854604651395e-15
  41     0.019463655437898
  42    6.2319570822994e-15
  43    2.1814295871005e-15
  44    -0.0022756620392066
  45    -2.1730054798652e-15
  46     0.013052508618961
  47    3.833394599225e-14
  48    1.4669048464209e-14
  49    -4.4185585496549e-15
  50    -4.7268381210697e-15
  51    0.0098714669262827
  52    -5.0232997842642e-16
  53    -4.9664491598334e-15
  54    -0.0027623694064091
  55    5.4600152871972e-15
 Sym= A
 Ene=               1
 Spin= Alpha
 Occup=    1.00000
   1    -0.00033213803168397
   2    -0.027056682102919
   3    -0.047398959678766
   4    -0.027290082244303
   5      0.48842631077429
   6    -3.771625181385e-14
   7    -0.043192681091451
   8      0.38735622568434
   9    -2.6941517066628e-14
  10    -0.033051259785533
  11     0.085337381195701
  12    -1.680944864579e-15
  13    -0.0086717155438626
  14    -0.004639118355554
  15    -0.0015551197605618
  16    2.2628029224584e-15
  17    -0.00040153955438097
  18    6.0561263939104e-16
  19    -0.0018512183123539
  20    -0.012459797145283
  21    3.0135742950759e-15
  22    -0.0040876818454185
  23    5.9448279078538e-16
  24    0.0026286921728823
  25      0.13253840418821
  26      0.30904774339934
  27      0.13213317375566
  28     -0.40578680245553
  29    -2.985753520438e-14
  30     -0.08314101899348
  31     -0.28638418937026
  32    -1.7862684573267e-14
  33    -0.014730438540789
  34     -0.05122148760309
  35    -2.5344812106564e-15
  36    -0.0034209138869994
  37    -0.012935340603162
  38     0.019775672933671
  39    -3.104228037353e-15
  40     -0.01043627496064
  41    -1.49448243521e-15
  42     0.014811512489002
  43    0.0016247844269367
  44    -3.2785230015472e-18
  45    -0.0082821336090591
  46    -1.2934520983294e-15
  47     -0.24846464202438
  48     -0.13332776046217
  49    -0.023593804096235
  50    0.0090249153780628
  51    -7.7009827376874e-16
  52     -0.01442068638311
  53    -0.0080010057795697
  54    3.529530815545e-16
  55     0.020098208218277
 Sym= A
 Ene=               2
 Spin= Alpha
 Occup=    1.00000
   1    0.0050957406625098
   2      0.07300091075991
   3       0.1553943773414
   4     0.059374698096285
   5    -0.075072990197326
   6    -1.5391498479712e-13
   7      0.51790863336276
   8    -0.060591027265103
   9    -1.0916979649973e-13
  10      0.30488504236577
  11     -0.01914595017204
  12    -1.0267110807364e-14
  13    0.0077321995915959
  14    -0.024288741933057
  15    -0.0070785311045314
  16    8.9883393225633e-15
  17    0.00087603285430232
  18    2.3628799636735e-15
  19    -0.022170108555548
  20    -0.0055618165917992
  21    1.2488751606474e-14
  22    2.5282468715252e-05
  23    2.9213856777201e-15
  24    -0.00035211847115213
  25    -0.042706703547045
  26     0.080569037819803
  27    -0.016056440192676
  28     -0.13597519491298
  29    -1.2238074062547e-13
  30     -0.38536567819783
  31    -0.059993539161354
  32    -7.3611451005672e-14
  33     -0.13344259248993
  34    -0.002026263076424
  35    -5.9972315865517e-15
  36    -0.0066105454718021
  37    -0.021139694889562
  38    -0.038319938241144
  39    -1.2524766856549e-14
  40    -0.0038773963546596
  41    -6.4800571711139e-15
  42    0.0062034901339769
  43    -0.0030033704787416
  44    1.5525906289485e-16
  45    -0.0047680634269487
  46    -4.6798996463994e-15
  47      0.11716398006551
  48     0.069552779914016
  49    0.0061860615685768
  50    -0.0098589149018501
  51    -3.2616375534527e-15
  52    -0.0016334272452299
  53    -0.0078129846259436
  54    1.0892836065472e-15
  55     0.010448052459144
 Sym= A
 Ene=               3
 Spin= Alpha
 Occup=    1.00000
   1    0.0018028159270762
   2    -0.029141995990877
   3    -0.016158315963315
   4     0.017535603929484
   5       0.4205243734119
   6    -1.7115271754799e-14
   7    -0.0049759493460113
   8      0.26299580407273
   9    -1.2842071153774e-14
  10    -0.015257550113141
  11    0.0058439054637209
  12    -2.0043175802589e-15
  13    -0.0054722767740518
  14    0.0032816214391013
  15    -0.019604963518651
  16    9.2602921981458e-16
  17    -0.0049644728281521
  18    2.6138725579041e-16
  19    0.0071281808058619
  20    -0.022705399562214
  21    1.9812489686737e-15
  22    -0.0023663799778469
  23    3.7947671055571e-16
  24    -0.0038632508199931
  25    -0.066910310598256
  26    -0.085902785999248
  27    -0.0081395508985336
  28      0.35896740314843
  29    -1.3728331777631e-14
  30     -0.18283079277722
  31       0.1535842964487
  32    -7.2293058859866e-15
  33    -0.034565765474669
  34      0.01519425398421
  35    -2.9118652689531e-16
  36    -0.0046282152649015
  37    -0.026639330638513
  38    0.0032031688496752
  39    -1.4092376037164e-15
  40     0.020469472588297
  41    -7.2008692379555e-16
  42     0.010500801341483
  43    -0.0066207109617297
  44    5.3074984180072e-16
  45    -0.0044421857425121
  46    -2.3187074731674e-16
  47      0.25275565776791
  48     0.033154196971031
  49    -0.0021504924874007
  50    -0.019444839483644
  51    -3.9810019961484e-16
  52     0.016545107290162
  53    0.0055876841513919
  54    1.0841530315853e-18
  55    0.0031397293261242
 Sym= A
 Ene=               4
 Spin= Alpha
 Occup=    1.00000
   1    0.00093555096812081
   2      0.29179149100763
   3      0.42222318939131
   4     0.067812483486743
   5      0.14501651731414
   6    6.1554142205322e-15
   7      0.10277094375321
   8     0.081631250805033
   9    5.8312236098659e-15
  10     0.012874534776602
  11    0.0077415345008992
  12    4.8288599515534e-17
  13    -0.0082008643463919
  14    -0.0069101636820372
  15    -0.0056710869699245
  16    -2.7366927836651e-16
  17    0.00032173796379187
  18    -2.1740794683259e-17
  19    -0.0020571284774588
  20    -0.0023429101555082
  21    -1.1766280439616e-15
  22    0.00036755500226698
  23    -4.3570886699896e-16
  24    -0.0044263001305484
  25     -0.35186794939514
  26     -0.40172135516575
  27    -0.044821849857509
  28    0.0081089305516545
  29    5.0382729970275e-15
  30      0.16473919177285
  31     0.020848576319162
  32    1.8151664641298e-15
  33     0.016801786113661
  34    -0.0034846350196225
  35    7.2139271558093e-16
  36    -0.0075403192929869
  37    0.0057489774262819
  38     0.019564439333058
  39    5.0198675059412e-16
  40    -0.0039268233697516
  41    2.2889892756019e-16
  42    -0.016984138594549
  43    -0.018939955929142
  44    -9.1918442206586e-16
  45    0.0087625673230973
  46    -9.3578243187028e-17
  47     -0.22455207529563
  48    -0.023162509276117
  49    -0.00012268538203533
  50     0.026425951408501
  51    1.9775099155723e-16
  52    -0.013927249976743
  53    -0.0049774614140379
  54    -1.4760109128355e-16
  55    0.0043222752968422
 Sym= A
 Ene=               5
 Spin= Alpha
 Occup=    1.00000
   1    -0.0078599453413387
   2      0.37548457747182
   3      0.43158270326519
   4     0.040798800153226
   5    0.00033342327876248
   6    -2.0888275651541e-14
   7    -0.046867765611392
   8    0.0027472153673772
   9    -1.5633737526181e-14
  10    -0.038566668191472
  11    0.0013515351204953
  12    -1.2304418896976e-15
  13    0.0041414976881009
  14     0.012325444357617
  15    0.0051431481470411
  16    1.2245351633343e-15
  17    0.00023709336726884
  18    3.0105655342346e-16
  19     0.012930891407068
  20    0.0023478750403945
  21    1.8841019196792e-15
  22    0.0014426261443961
  23    5.6229110661007e-16
  24    -0.0010451564820222
  25      0.28519882236434
  26      0.13671626508563
  27    -0.0041906537838493
  28      0.05929193525112
  29    -1.6714345973909e-14
  30      0.05008359891451
  31    -0.017647807003009
  32    -9.4619474364008e-15
  33    -0.052022963729131
  34    0.0008427540493771
  35    -9.6058922797568e-16
  36    -0.0093867933547778
  37      0.01720842502572
  38     0.010709096119918
  39    -1.6718654585898e-15
  40    0.0031861385137485
  41    -9.3934123644548e-16
  42    -0.0097556421989188
  43    -0.00085868028368509
  44    4.4290372937282e-16
  45    -0.0099749350506176
  46    -4.0612120626558e-16
  47      0.12434609073783
  48    -0.014125654717637
  49    -0.00076922498977152
  50    -0.018133491663794
  51    -4.200427468207e-16
  52     0.012921940722201
  53     0.010415061367678
  54    -5.3538575143568e-17
  55    -0.0069793157597385
 Sym= A
 Ene=               6
 Spin= Alpha
 Occup=    1.00000
   1     -0.54276782344927
   2    -0.001426797145353
   3    0.0067026596157161
   4    0.0012987508259142
   5    0.00022371779769239
   6    5.7720528469537e-16
   7    0.00082627150583771
   8    -0.00048698115911535
   9    -1.7892783599802e-15
  10    -0.0024394956698045
  11    -0.00012171365316593
  12    -1.5723398225785e-15
  13    -0.00011444493124097
  14    -0.00039899414110345
  15    -0.00012068835530799
  16    -6.8174537885654e-16
  17    -0.0002015900356105
  18    -2.0561141139132e-16
  19    1.8303320734195e-05
  20    -9.0315756422001e-05
  21    2.3640558502514e-15
  22    -8.5852135926957e-05
  23    5.7660299022165e-16
  24      0.84196216120648
  25    0.0014104849835338
  26    -0.011373166357246
  27    -0.0032035714797735
  28    0.0016992959405331
  29    5.0215110553152e-16
  30    0.0014188089193454
  31    -0.0030279857738119
  32    3.2168914320482e-15
  33    -0.0029013414514987
  34    -0.00056974272144132
  35    1.3142225764317e-15
  36    -4.2646773188257e-05
  37    0.00063981458132485
  38    0.00022294634357948
  39    1.8144170822931e-16
  40    0.00045332390386491
  41    6.7424047196069e-17
  42    -0.0013546399272759
  43    -0.00075637994921624
  44    1.9717218980739e-15
  45    -0.00040037848893941
  46    9.259954216875e-16
  47    -0.00028157521903027
  48    0.0041691421506412
  49    0.00059135112515501
  50    0.0004317252017479
  51    -8.7624775010575e-17
  52    -0.00019033381367507
  53    -0.0013121197941329
  54    -3.2588989028393e-16
  55    0.0012371131476457
 Sym= A
 Ene=               7
 Spin= Alpha
 Occup=    1.00000
   1      0.84236694646916
   2      0.00160348912118
   3    -0.016482920014372
   4    -0.005350681102572
   5    -0.00087735930966711
   6    2.1545770498118e-16
   7    -0.0023948497811478
   8    0.0018401466530026
   9    -1.4552384642037e-15
  10    0.0075021864551722
  11    0.00029850855010022
  12    -1.1581907644463e-15
  13    0.00085183419375589
  14    9.370657572818e-05
  15    1.2613018485272e-05
  16    -4.1963721560152e-16
  17    0.00023760123607183
  18    -1.5983355400283e-16
  19    -0.0021275368106543
  20    -0.0010625003385981
  21    1.6726851774296e-15
  22    -0.00020318953397177
  23    3.8696754504829e-16
  24      0.54275850792198
  25    0.00038178196357552
  26    0.0060306783623768
  27    0.0019913060757823
  28    0.0011937876653279
  29    1.7387382095004e-16
  30    0.0018613877710419
  31    0.00094990113146372
  32    2.141760108473e-15
  33    0.0086118236292879
  34    -0.00027729693694315
  35    8.6764676507713e-16
  36    0.0012630145735561
  37    0.00014710849820516
  38    -0.00010362889597229
  39    9.3225411433483e-17
  40    0.00027950547865986
  41     3.18766729739e-17
  42    0.0016923248896818
  43    0.0013972840721947
  44    1.3848370328036e-15
  45    0.00010927108915005
  46    6.456893091558e-16
  47    -0.00086688345769443
  48    0.0044819453299295
  49    0.00019896272868011
  50    0.0004647117141046
  51    -6.3047388730345e-17
  52    -0.00042728927414343
  53    -0.0016291805121602
  54    -2.2138076361753e-16
  55    0.00095661312850569
 Sym= A
 Ene=               8
 Spin= Alpha
 Occup=    0.00000
   1    9.1548479690866e-16
   2     -1.4504612546e-14
   3    -5.8912060158026e-14
   4    -1.419573619883e-13
   5    1.7834281537686e-14
   6     -0.45050645524366
   7    5.5676466095918e-14
   8    2.1696647708076e-15
   9     -0.40427321033775
  10    6.2474690609264e-14
  11    8.8973941444649e-14
  12     -0.22105479191359
  13    3.8520918477363e-16
  14    -7.9358747059699e-16
  15    2.346029227948e-15
  16    -0.0069366494560382
  17    -1.4524791711782e-15
  18    -0.00076869558541598
  19    -8.2806860513517e-15
  20    6.3248446176089e-15
  21     0.002176858391178
  22    -3.1056567162179e-15
  23    -0.0030363488568552
  24    -3.0640541066571e-15
  25    1.3829458034677e-14
  26    1.2190237287599e-13
  27    1.1515062929193e-14
  28    3.5675282183679e-14
  29      0.49601791395795
  30    5.0843370688081e-14
  31    5.4670715426747e-14
  32      0.46409910833316
  33    5.390031482803e-14
  34    -1.3109840223992e-13
  35      0.22858920279341
  36    1.146732634063e-13
  37    -1.1499380567797e-15
  38    -2.4522548768921e-15
  39    -0.012860992698342
  40    3.9526755817956e-16
  41     0.010127006518682
  42    -1.6333565602202e-14
  43    -1.13802117629e-14
  44    -0.0022462434654323
  45    1.0832845553718e-14
  46     0.014557753894643
  47    -1.5571175635586e-14
  48    1.3557410890252e-14
  49    7.099577455027e-14
  50    -6.7097924452359e-16
  51      0.02088889252772
  52    1.7613416888797e-15
  53    -2.5218462680227e-14
  54     0.034155158812071
  55    -1.3083575063146e-14
 Sym= A
 Ene=               9
 Spin= Alpha
 Occup=    0.00000
   1    0.0047211735158256
   2      0.11252226370988
   3      0.44273518994301
   4       1.7228161139404
   5     -0.20140383949499
   6    1.0728667902827e-13
   7    -0.053843649067615
   8     -0.13046261595317
   9    -1.6983103258111e-14
  10     -0.24725917255529
  11      0.15219835095431
  12    3.1961693193417e-13
  13     -0.63934872047002
  14    -0.0011029055006845
  15    -0.0050187229213501
  16    -2.4189262432564e-14
  17    -0.0043268025667787
  18    -1.1125000823485e-14
  19     0.045948598722422
  20    -0.022012311800708
  21    -2.141434214563e-14
  22    -0.0030455921588666
  23    2.8427522565403e-15
  24    0.0069069086474985
  25    -0.0065154735330646
  26     -0.26088796780259
  27      -1.8288667504709
  28     -0.22625257914579
  29    4.7614804623952e-13
  30     -0.12992038102523
  31     -0.19702538492647
  32    5.9548250643618e-13
  33     -0.41681541718333
  34       0.3558792794592
  35    -2.7657730930231e-12
  36     -0.96967505558323
  37     0.013955328737651
  38     0.024143793321821
  39    3.1418356605153e-14
  40    -0.0075934331060554
  41    4.8939468998063e-14
  42    -0.038595244431238
  43     0.032600762162732
  44    2.4902613300791e-14
  45     0.027623849799474
  46    -8.2728513584557e-14
  47    -0.046911035175484
  48     -0.24052157501085
  49     0.013906286694281
  50    0.0097410529170066
  51    -1.227402062612e-14
  52    -0.007242476899037
  53      0.06808757653975
  54    3.8216717039164e-13
  55    -0.0057938644730117
 Sym= A
 Ene=              10
 Spin= Alpha
 Occup=    0.00000
   1    -0.0074879275565564
   2      -0.1553402531119
   3     -0.47863134917384
   4     -0.49097547005043
   5     0.040816932249493
   6    -2.1751330288852e-14
   7      0.65922571876478
   8      0.11206067296658
   9    -2.1452125698837e-14
  10      0.45387261757373
  11      0.31564347661575
  12    2.1650858941289e-13
  13     -0.15951450043892
  14     0.017712129236296
  15     0.012012821771077
  16    8.3801767012309e-15
  17    -0.0055591825951042
  18    -1.05091697398e-14
  19      0.06219284279166
  20     0.024875213317153
  21    3.2599433264318e-14
  22    -0.014523831472829
  23    8.3804265718989e-15
  24     0.038867760405432
  25      0.29779653582943
  26       0.6936721696292
  27      0.26541274419918
  28       0.2026802278947
  29    3.1916242443405e-14
  30      0.54800175427358
  31      0.12922638202813
  32    1.1142676116211e-13
  33      0.49068433382496
  34    -0.037447236586737
  35    -3.1541030756047e-13
  36    -0.00027119442950677
  37    -0.048458573317746
  38    0.0011881254157784
  39    1.6800732331983e-14
  40    0.0060466031087928
  41    1.5555629645567e-14
  42    -0.081694349998912
  43     0.033791470752166
  44    6.3853302689604e-14
  45     0.022568395976904
  46    1.2248860285571e-14
  47    -0.069673050680862
  48      -0.1840279725833
  49    -0.080206796617682
  50     0.011193971120489
  51    -8.6864206130586e-15
  52     0.027140222812727
  53    0.00097990136807999
  54    -1.4446372121223e-13
  55     0.040739435546494
 Sym= A
 Ene=              11
 Spin= Alpha
 Occup=    0.00000
   1     0.021809942164856
   2      0.11087796884999
   3      0.31494067187419
   4     -0.20706558755138
   5       -0.390188802141
   6    2.7761758868351e-13
   7    -0.049046484344402
   8     0.074941897474968
   9    6.8430579836509e-14
  10     -0.15406280946437
  11      0.78365209651887
  12    -1.0198669346128e-12
  13     -0.31909086540491
  14    0.0058203348847483
  15     -0.01781345677873
  16    -1.8943246762891e-14
  17    -0.012171467342925
  18    -1.0760524239514e-14
  19    -0.0062077336158766
  20    -0.012103560397942
  21    2.8078366588963e-14
  22    -0.0049301870918397
  23    2.6600052352204e-14
  24    -0.012933640971195
  25    -0.032828508891607
  26    -0.050925478335819
  27      0.68063437230655
  28      0.39295989453314
  29    -3.085018989968e-13
  30     -0.34645957245404
  31    -0.008032634076802
  32    -1.4844878990442e-13
  33     -0.31573877714315
  34     -0.56963134161542
  35    1.1593344085961e-12
  36      0.20420502360036
  37    -0.020760043877903
  38    -0.003868868713997
  39    -6.8082280685666e-15
  40    -0.010529876831487
  41    1.9092668512847e-14
  42     -0.11228200444784
  43    -0.005406009502342
  44    -1.4984777504215e-13
  45    -0.017330689856685
  46    -2.5583256672974e-14
  47     -0.21807433007166
  48     -0.81029266940275
  49     -0.16643619158613
  50    -0.049548957468829
  51    -1.0588306125743e-14
  52    0.0097189883334823
  53     -0.11638316257635
  54    3.0257498951077e-13
  55     0.032963666784093
 Sym= A
 Ene=              12
 Spin= Alpha
 Occup=    0.00000
   1    -0.092510924223759
   2     -0.31480459144373
   3     -0.15528884475413
   4       1.4234458789469
   5     -0.23237985983509
   6    3.5998137701113e-13
   7    -0.080851507962624
   8     0.083948508068732
   9    -6.4872321749421e-14
  10     0.030687600690466
  11      0.40981520653984
  12    -4.9348499924009e-13
  13      -0.4822461242448
  14    -0.019448512215222
  15    -0.024780861727436
  16    -1.6719840481447e-14
  17    -0.016880744140234
  18    2.2892946372698e-14
  19    -0.013217233085894
  20    -0.080943230270002
  21    1.3471220627004e-14
  22    0.0058363353842279
  23    -5.6552714695264e-14
  24     -0.11556895725359
  25     -0.39870101107592
  26     -0.28734150559619
  27     -0.52580023330297
  28    -0.009501241006098
  29    1.8310769830644e-13
  30      0.14717239665381
  31      -0.2465925239889
  32    4.001453526876e-13
  33     0.092765192687157
  34     -0.35053440427107
  35    -5.8407678341156e-13
  36     -0.30990940915053
  37    -0.046481881849784
  38    0.0080665229668947
  39    4.5812473478887e-14
  40    -0.014297078837207
  41    4.7254963964333e-14
  42      -0.0862161430205
  43     0.008207454828249
  44    -1.685304965707e-13
  45     0.015812920060448
  46    -1.598808146195e-13
  47    -0.011618317718975
  48      0.35332452670962
  49     0.030763429701747
  50       0.0369329068105
  51    -4.0393882195957e-14
  52    0.0092068462854592
  53    -0.042366416915605
  54    -1.6924614890134e-13
  55      0.12078352766399
 Sym= A
 Ene=              13
 Spin= Alpha
 Occup=    0.00000
   1      0.21684265430219
   2      0.65024749616209
   3      0.57095683883056
   4       -2.296440973998
   5     0.023932523346258
   6    -1.71958840361e-13
   7    -0.057933259042168
   8      -0.1045913284461
   9    4.1394528250876e-15
  10      -0.2620907266041
  11      0.12349116134754
  12    -1.9645883159771e-13
  13      0.31521746504571
  14     0.094850306184468
  15    0.0058367145506727
  16    1.6923615978503e-14
  17     0.094127592810616
  18    -4.736489136238e-14
  19      0.31020554849741
  20      0.12369234436985
  21    -1.135828061031e-13
  22      0.11641539826449
  23    3.5498729993883e-14
  24     -0.20961296376167
  25     -0.57435121345886
  26      -0.3559613419802
  27        1.601619576846
  28     -0.12188798962661
  29    -3.1552354151453e-13
  30     -0.13133545587587
  31     -0.19270557211097
  32    -3.2743735133924e-14
  33     -0.21848513764394
  34     -0.14411520789706
  35    1.4484166700582e-12
  36      0.59024933156871
  37      -0.1488194814347
  38    -0.017816250767863
  39    9.5760399014442e-14
  40     -0.13448228111326
  41    -9.5279461705395e-14
  42     -0.49009309236327
  43     -0.18898914977656
  44    2.3868224084519e-14
  45     -0.20661684306484
  46    1.3417250033085e-13
  47      0.09543151687347
  48      0.61440212846566
  49    -0.062078452946281
  50     0.038720018112306
  51    5.5081369666698e-14
  52      0.01190998367787
  53    -0.046108066253195
  54    -5.7405529801411e-13
  55      0.15002383358353
 Sym= A
 Ene=              14
 Spin= Alpha
 Occup=    0.00000
   1     -0.38878148675294
   2     -0.76836137303698
   3       1.6914429175815
   4       1.5727066417179
   5      0.19682415430334
   6    -1.3801969534805e-12
   7      0.39684753211635
   8     -0.80856231298586
   9    1.5313751455171e-12
  10       -1.668600649173
  11     0.083439775710873
  12    -1.9425342919236e-12
  13     -0.33149724645062
  14      0.26910982303484
  15     0.071268362539977
  16    -4.3913520679616e-13
  17      0.35787984409532
  18    -5.8622831101092e-13
  19      0.65156594512672
  20      0.48017653556661
  21    5.4501450967718e-13
  22     0.018163358873294
  23    7.3620302130692e-13
  24     -0.25691335448195
  25     -0.53759609232997
  26       -2.007406708322
  27      -1.4324739311198
  28    -0.017698251239114
  29    2.8420040755526e-12
  30     -0.69841581671956
  31     -0.31288024283567
  32    -3.5571550197619e-12
  33     -0.38859411213051
  34     -0.31760017549031
  35    1.1412387997435e-12
  36     -0.19596734061801
  37      0.27698621916201
  38     0.045815820297797
  39    -6.7631120814704e-13
  40      0.63212873648285
  41    4.4899679988248e-13
  42     -0.19748643551274
  43      0.21544589123351
  44    2.1127212939189e-12
  45     -0.12117582717646
  46    1.247653489803e-13
  47     0.045817219936465
  48      0.62336057343537
  49      0.11382181004497
  50     0.086665978812135
  51    -1.5369117268612e-13
  52     -0.09268754173463
  53     -0.16475715891415
  54    1.2832885221044e-12
  55     0.018374359603695
 Sym= A
 Ene=              15
 Spin= Alpha
 Occup=    0.00000
   1      0.10201237453998
   2      0.22152252932297
   3     -0.92992039306915
   4      -1.7180057463942
   5     -0.14285020856524
   6    3.5727664527256e-12
   7    -0.033327837252052
   8      0.53541948713933
   9    -3.8208979616387e-12
  10      0.61937387205666
  11    -0.049934684970386
  12    -2.0499420285552e-12
  13      0.25380820349095
  14      -0.3336359633529
  15     0.096310313642601
  16    -1.1749349405084e-12
  17     -0.75934801043194
  18    -4.9900421584117e-14
  19      0.13034263888998
  20    -0.072931140228937
  21    1.6795857278368e-12
  22     0.040479578740602
  23    -1.3682673561287e-12
  24    -0.027913547223413
  25    -0.025377523778952
  26      0.86870256526616
  27       1.0430387235609
  28     0.069269521414451
  29    3.6645175434723e-12
  30     -0.12376294456869
  31     -0.10274585335402
  32    -6.942273110903e-13
  33       1.0675661115078
  34     0.071873918722841
  35    -2.515844578388e-12
  36      0.40220954911448
  37     0.062655184890836
  38    -0.098008737236163
  39    -2.2636362990654e-12
  40      0.61005202767563
  41    6.7036905404584e-13
  42      0.16575913163019
  43    0.0035435209333783
  44    2.1775452546212e-12
  45     -0.11586674052288
  46    7.9303163838614e-13
  47    -0.043143820298744
  48      0.49687383643437
  49    -0.019633106931295
  50      0.18002756788517
  51    -1.4218690430121e-12
  52    -0.062304223135327
  53    -0.059109339936646
  54    1.9505108214905e-12
  55      0.14790499767116
 Sym= A
 Ene=              16
 Spin= Alpha
 Occup=    0.00000
   1    0.0074708359809307
   2     0.017174509543474
   3     0.015107389643471
   4     -0.32833743066235
   5    -0.013821609927182
   6     -0.16538562985782
   7    0.0026122502996371
   8     0.019504853409992
   9     -0.31399875424002
  10     -0.02065472209929
  11      0.01993115099021
  12       2.0836141051001
  13      0.39251030440605
  14    0.0015940068885499
  15    0.0037748931149751
  16     0.017056654682776
  17     -0.01194677229829
  18     0.004381191685654
  19     0.010450754179027
  20    -0.00033274041224374
  21    -0.076365292421446
  22    0.0011044467076901
  23    -0.016713513745069
  24    -0.010866458084196
  25    -0.021536163342804
  26     0.040834513880254
  27      0.62113508036783
  28      0.01736178562953
  29     0.053859516945652
  30    0.0028413862632355
  31    -0.016279038760711
  32    -0.0072080379541151
  33     0.039235953512436
  34      0.12595737177461
  35      -1.6298516264597
  36     -0.21736006185718
  37    -0.0015535145432447
  38    0.00082147574683136
  39    -0.0014055667775423
  40     0.013559246135113
  41    0.0055840659310364
  42    -0.027796739632079
  43     -0.02523981179594
  44     -0.11404227416668
  45    -0.012025381688027
  46    -0.053236068303914
  47    -0.013875756481738
  48    -0.046257861381065
  49     -0.20261447146165
  50    0.0052556956275297
  51    0.00075603927215436
  52    -0.0027900899606165
  53    -0.019366154892454
  54      0.12458838148388
  55     0.058959060653836
 Sym= A
 Ene=              17
 Spin= Alpha