[Molden Format]
made by pyscf v[2.13.1]
[Atoms] (AU)
O   1   8     0.21099695469856     0.00000000000000     2.15462460678861
N   2   7    -0.44776862100326     0.00000000000000    -0.03589262653049
H   3   1     1.18163474748449     0.00000000000000    -1.17386889907833
[GTO]
1 0
 s    8 1.00
                 11720  0.00070964594651845
                  1759  0.0054672722921914
                 400.8   0.027823118610189
                 113.7    0.10474773971146
                 37.03    0.28292084635691
                 13.27    0.44849523869833
                 5.025    0.27081688521277
                 1.013    0.01545029160744
 s    8 1.00
                 11720  -0.00031444341168873
                  1759  -0.0024821376810179
                 400.8  -0.012316355381583
                 113.7  -0.050538917343672
                 37.03   -0.13938490331632
                 13.27   -0.32507749481778
                 5.025   -0.22984830758785
                 1.013     1.0953793467883
 s    1 1.00
                0.3023                   1
 s    1 1.00
               0.07896                   1
 p    3 1.00
                  17.7   0.062679166281506
                 3.854    0.33353656587936
                 1.046    0.74123964163973
 p    1 1.00
                0.2753                   1
 p    1 1.00
               0.06856                   1
 d    1 1.00
                 1.185                   1
 d    1 1.00
                 0.332                   1

2 0
 s    8 1.00
                  9046  0.00069961741342552
                  1357  0.0053860546299287
                 309.3   0.027391021189057
                 87.73    0.10315059198201
                 28.56    0.27857066331743
                 10.21    0.44829484945412
                 3.838    0.27808592839527
                0.7466   0.015431561233271
 s    8 1.00
                  9046  -0.00030499009595337
                  1357  -0.0024080263785077
                 309.3   -0.01194444872518
                 87.73  -0.048925992909017
                 28.56   -0.13447272472496
                 10.21   -0.31511257770011
                 3.838   -0.24285783254964
                0.7466     1.0943822068542
 s    1 1.00
                0.2248                   1
 s    1 1.00
               0.06124                   1
 p    3 1.00
                 13.55   0.058905676772132
                 2.917    0.32046110671427
                0.7973    0.75304206179207
 p    1 1.00
                0.2185                   1
 p    1 1.00
               0.05611                   1
 d    1 1.00
                 0.817                   1
 d    1 1.00
                  0.23                   1

3 0
 s    3 1.00
                 13.01   0.033498726389998
                 1.962    0.23480080117413
                0.4446     0.8136829578829
 s    1 1.00
                 0.122                   1
 s    1 1.00
               0.02974                   1
 p    1 1.00
                 0.727                   1
 p    1 1.00
                 0.141                   1

[5d]
[7f]
[9g]

[MO]
 Sym= A
 Ene=               0
 Spin= Alpha
 Occup=    1.00000
   1    -0.00090309840716088
   2    -0.006545934923684
   3    -0.024689971334762
   4    -0.027602569400815
   5       0.4773375398018
   6    -1.8080622637628e-14
   7    -0.074977481942326
   8      0.38043335653933
   9    -1.2862286380973e-14
  10    -0.054081100138296
  11     0.086390480149151
  12    -3.4807881640338e-16
  13    -0.0093003142815333
  14    -0.0032080971705094
  15    -0.00023931040408464
  16    1.1266807011828e-15
  17    -0.0001772420842467
  18    3.0755425729397e-16
  19    -0.00049534304167287
  20    -0.010879736796348
  21    1.3290557863252e-15
  22    -0.0038921931833885
  23    1.9943803836562e-16
  24    0.0023991818115671
  25      0.12280108727105
  26      0.28467492590266
  27      0.13021596488211
  28     -0.41090772175109
  29    -1.4251659419569e-14
  30    -0.034432301994446
  31     -0.28753205030646
  32    -8.62519180996e-15
  33    -0.0031101121398367
  34    -0.051762431318634
  35    -1.7720365276194e-15
  36    -0.0032945253186552
  37    -0.0092668909048144
  38     0.023616517603602
  39    -1.505901400866e-15
  40    -0.011347565622288
  41    -6.7053471740789e-16
  42     0.012538135623178
  43    0.0010475175520081
  44    -1.2551338544772e-16
  45    -0.0073176154444388
  46    -7.3888604135585e-16
  47     -0.27980850275899
  48     -0.14095097481056
  49    -0.023809535592856
  50     0.011941398463034
  51    -3.46329585256e-16
  52    -0.015676401174708
  53    -0.0077857152586712
  54    2.1807437514508e-16
  55     0.019183607853865
 Sym= A
 Ene=               1
 Spin= Alpha
 Occup=    1.00000
   1    0.00053540254454944
   2    -0.056380327415901
   3    -0.081471625375167
   4    -0.014844743066978
   5     -0.42569424749712
   6    -2.4546809003244e-12
   7      0.18843926922502
   8     -0.26775384016775
   9    -1.7546179355146e-12
  10      0.13915689016868
  11    -0.015085205565615
  12    -1.6307614502984e-13
  13     0.010867619879684
  14    -0.010581035175256
  15     0.015086729260762
  16    1.4280428090345e-13
  17    0.0043004661327172
  18    3.7823567740973e-14
  19    -0.014629384989161
  20     0.016871855814062
  21    2.0650794136655e-13
  22    0.0017566732062992
  23    4.8054561081438e-14
  24    0.0029620975398113
  25      0.17290178148422
  26      0.26269226655409
  27     0.018337443909069
  28      -0.3591544831862
  29    -1.9455756061862e-12
  30     -0.08190518846279
  31     -0.16241530285354
  32    -1.1599100886272e-12
  33    -0.036296760803141
  34    -0.012495014347966
  35    -9.1381110886414e-14
  36    0.0037528408122641
  37     0.010238913935113
  38    -0.026486284663654
  39    -1.9936439333881e-13
  40    -0.016977533126093
  41    -1.0357093480449e-13
  42    0.00079238329599131
  43     0.011381931121909
  44    1.1820900912302e-14
  45    -0.0019088794724285
  46    -6.9715175385446e-14
  47    -0.071788980977363
  48        0.010478376774
  49    0.0042177352659508
  50     0.001522065489099
  51    -5.2522059526503e-14
  52    -0.0089980419703233
  53     -0.00610286371507
  54    1.4901333268867e-14
  55    0.00051743584303817
 Sym= A
 Ene=               2
 Spin= Alpha
 Occup=    1.00000
   1    4.8979546101744e-14
   2    9.0800313749048e-13
   3    1.3462033365356e-13
   4    -1.5878602037519e-12
   5    -1.3133913861313e-11
   6      0.46121976843488
   7    -1.5891483886339e-11
   8    -8.5012928062968e-12
   9      0.32974340462069
  10    -9.9779312143656e-12
  11    1.6397215088509e-13
  12     0.030802567338183
  13    -3.132339454883e-13
  14    4.4410739085448e-13
  15    8.3654732972601e-13
  16    -0.026824120160976
  17    1.7564212254335e-13
  18    -0.0071124454579522
  19    3.1475134492822e-13
  20    1.1109107907281e-12
  21    -0.038877470563028
  22    1.0841045132746e-13
  23    -0.0090210235614492
  24    2.9355095768781e-13
  25    -1.100033667753e-11
  26    -1.5179874017555e-11
  27    -1.0592038628293e-12
  28    -7.4436911270369e-12
  29      0.36554341648903
  30    2.6755363383699e-11
  31    -1.2220842869956e-12
  32      0.21781160050653
  33    7.9737010764479e-12
  34    -3.2116241739278e-13
  35     0.017054177082775
  36    4.0857512815601e-13
  37    1.8731007954969e-12
  38    1.6150628743461e-12
  39     0.037460083469865
  40    -7.7681430832381e-13
  41     0.019463655437898
  42    -1.086478316115e-12
  43    -1.478755274847e-13
  44    -0.0022756620392066
  45    8.2522445608266e-13
  46     0.013052508618961
  47    -2.157538573667e-11
  48    -3.6245174401223e-12
  49    1.838318902251e-15
  50    2.1524695100148e-12
  51    0.0098714669262827
  52    -1.1181074439598e-12
  53    -1.8326328071271e-13
  54    -0.0027623694064091
  55    -4.2455193782738e-13
 Sym= A
 Ene=               3
 Spin= Alpha
 Occup=    1.00000
   1    0.0015745075959095
   2      0.14900802172038
   3      0.21328932533957
   4     0.022624284604876
   5     -0.12481861743663
   6    -2.636989641811e-11
   7    -0.039219849161594
   8    -0.089426138483417
   9    -1.8851492723786e-11
  10     -0.05123092406399
  11    0.00024171738762406
  12    -1.7610776852331e-12
  13    -0.005773271739514
  14    -0.0028852157123923
  15    0.0064869758043496
  16    1.5337304985983e-12
  17    0.0025464663839259
  18    4.0671181664769e-13
  19    -0.0019742190503617
  20     0.011842683376039
  21    2.2221242469915e-12
  22    0.0015539780439407
  23    5.1550590679185e-13
  24    0.0017902733704968
  25     -0.30260537816862
  26     -0.34921904163697
  27    -0.037759879404725
  28     -0.11753705844805
  29    -2.0899329259072e-11
  30      0.32124199467203
  31    -0.017107146930524
  32    -1.2454334964429e-11
  33       0.0781733417456
  34    -0.0055825890270672
  35    -9.7461983007148e-13
  36    0.00044709172653231
  37     0.021252164673671
  38     0.019817816273514
  39    -2.1417357053739e-12
  40    -0.012262874173072
  41    -1.1128457907601e-12
  42    -0.019629049469489
  43    -0.010677954214862
  44    1.2929508063901e-13
  45      0.01323568452991
  46    -7.4653664552591e-13
  47     -0.34035376628294
  48    -0.038580314160653
  49    0.0016424497966794
  50     0.036292228037973
  51    -5.6434355497761e-13
  52    -0.020391615450754
  53    -0.0061848922802141
  54    1.5788190770713e-13
  55    -0.001282755315029
 Sym= A
 Ene=               4
 Spin= Alpha
 Occup=    1.00000
   1    0.0025719069017994
   2      0.28428512666069
   3      0.42968404654547
   4     0.093569931809554
   5      0.11453527077303
   6    1.4084648812761e-11
   7      0.45746510205425
   8     0.059857960768865
   9    1.0070783167936e-11
  10      0.24091561026923
  11    -0.0071519877478434
  12    9.4040102567485e-13
  13     0.001924503342816
  14    -0.019575210986727
  15    -0.011380832240763
  16    -8.1907815142518e-13
  17    -0.00012601295317902
  18    -2.1717336885039e-13
  19    -0.014453526537423
  20    -0.010287481482641
  21    -1.1878508035547e-12
  22    -9.4920420781098e-05
  23    -2.7567466985648e-13
  24    -0.018194477214244
  25     -0.14216804436871
  26    -0.099164911526897
  27    -0.032284624843267
  28    -0.032692870451556
  29    1.1162583416705e-11
  30     -0.26460985293736
  31    -0.021917774058934
  32    6.6504382272504e-12
  33     -0.12140797764144
  34    -0.0018522187286844
  35    5.2074349199958e-13
  36    -0.012412303396904
  37    -0.016331979197967
  38    -0.017854690549674
  39    1.143929256453e-12
  40    -0.00037882407301434
  41    5.9436454226266e-13
  42    -0.0027075150293821
  43    -0.013048872506113
  44    -7.0277882179841e-14
  45    -0.0033832398915837
  46    3.9827601512043e-13
  47     0.062197759577745
  48     0.044013998498898
  49    0.0034527295125793
  50    -0.0035882319043629
  51    3.0151448370272e-13
  52    -0.0018984917771217
  53    -0.0052989744130631
  54    -8.4327686338957e-14
  55     0.010265251888591
 Sym= A
 Ene=               5
 Spin= Alpha
 Occup=    1.00000
   1    -0.012013714329962
   2       0.3560650684128
   3      0.39225674463281
   4     0.024394426019408
   5    -0.065582907106665
   6    -1.7750073226529e-12
   7     -0.17575540533794
   8    -0.039378106569989
   9    -1.2697467973501e-12
  10     -0.11379768942956
  11    0.0016893138700554
  12    -1.1830727219559e-13
  13    0.0027616308352163
  14     0.017545559081423
  15    0.0098062209905557
  16    1.0324429325724e-13
  17    0.00084236158086532
  18    2.7358136971518e-14
  19     0.017021052088562
  20    0.0079604238274782
  21    1.4975405283196e-13
  22    0.0019662764720896
  23    3.487104618885e-14
  24    -0.00066147681356665
  25      0.26881424428245
  26     0.087203523218719
  27    -0.0069309479491395
  28       0.0535973427569
  29    -1.4068076823288e-12
  30      0.19334238112416
  31    -0.010958576452116
  32    -8.3781176274642e-13
  33    -0.0061133235713626
  34    0.0011577888700753
  35    -6.5705869046955e-14
  36    -0.0065456049942754
  37     0.027280715707589
  38      0.01990927884246
  39    -1.4413034241293e-13
  40    0.00099644272373787
  41    -7.4971431535962e-14
  42    -0.014190758001549
  43    8.0048748271815e-05
  44    9.1338207923562e-15
  45    -0.0065940472156406
  46    -5.0014304469667e-14
  47     0.045573105932879
  48    -0.032199703038871
  49    -0.00089468371998129
  50    -0.010449121132218
  51    -3.7966923437174e-14
  52    0.0099606623366684
  53     0.011184970161229
  54    1.0422086715469e-14
  55    -0.010702073489095
 Sym= A
 Ene=               6
 Spin= Alpha
 Occup=    1.00000
   1    -0.034150618505106
   2    0.0032108711466002
   3    0.0028148610849039
   4    -0.00034880685412281
   5    0.0011583358415959
   6    1.753416010241e-13
   7    0.0066922000587561
   8    0.0012833817411143
   9    1.2265559722527e-13
  10    0.0057145658977055
  11    -7.0612778637031e-05
  12    9.7236828858848e-15
  13    0.00040271316196344
  14    -0.00059457126181819
  15    -0.00025966810123959
  16    -1.0962126233819e-14
  17    -5.3678521963321e-05
  18    -2.9529666029831e-15
  19    -0.0013089772636178
  20    -0.00078408657255161
  21    -1.1849085950291e-14
  22    -0.00018182673703474
  23    -2.7260910266243e-15
  24       1.0009988683324
  25    0.00057719649860101
  26    -0.0065290729114993
  27    -0.002033846759721
  28    0.0012578556844515
  29    1.3900241296816e-13
  30    -0.002910877260952
  31    -0.0027153236944443
  32    8.6366205818208e-14
  33    -0.00018133072331484
  34    -0.00067157315414889
  35    8.0309808674987e-15
  36    0.00043248670897264
  37    0.00033175339041954
  38    -0.00023188264676563
  39    1.4395194529074e-14
  40    0.00053393975936289
  41    7.4480822103088e-15
  42    -0.0002694736685812
  43    -7.1888134888685e-05
  44    1.5314113192776e-15
  45    -0.00038390619855654
  46    6.0668628735602e-15
  47     0.001135427266443
  48    0.0066473040124152
  49    0.0006592480270565
  50    0.00044623083975879
  51     3.63306843852e-15
  52    -0.00036488583773402
  53    -0.0020332219104396
  54    -1.4389023271523e-15
  55    0.0017129488456827
 Sym= A
 Ene=               7
 Spin= Alpha
 Occup=    1.00000
   1       1.0014740004651
   2    0.0032163677090847
   3    -0.016328350809801
   4    -0.0051306926075474
   5    -0.00070043467591336
   6    -3.090009375057e-14
   7    -0.0025194145124498
   8    0.0019475529232712
   9    -2.2347735816494e-14
  10    0.0076503882739534
  11    0.00032028528436607
  12    -2.2443189961224e-15
  13    0.00080752852207396
  14    0.0003235040445648
  15    7.9089893788486e-05
  16    1.7798287815195e-15
  17    0.00030533763025709
  18    4.4285697504897e-16
  19    -0.0017950728278326
  20    -0.00087268072870246
  21    2.8204536594309e-15
  22    -0.0001273947228808
  23    6.3954094555088e-16
  24     0.034376967546043
  25    0.00071147407880241
  26     0.011684442977506
  27    0.0033594219428559
  28    0.00049035916101617
  29    -2.4511206326826e-14
  30    0.00070246261828919
  31    0.0023509112495023
  32    -1.4348320702648e-14
  33    0.0086297085814048
  34    6.4224819279743e-05
  35    -1.0681167478103e-15
  36    0.0010736859505315
  37    -0.00017066649232405
  38    -0.00018846362363761
  39    -2.513597481332e-15
  40    3.0575117041589e-05
  41    -1.3066768687359e-15
  42    0.0021331635251354
  43    0.0015902023304035
  44    3.3180668091698e-16
  45    0.00025597298730204
  46    -7.9086280289009e-16
  47    0.00011816412790426
  48    0.0017126899646991
  49    -0.0001352155532813
  50    8.7723408187619e-05
  51    -6.6814206663463e-16
  52    -0.00020976636194229
  53    -0.00068823726657838
  54    1.6086080625335e-16
  55    0.00016782567803101
 Sym= A
 Ene=               8
 Spin= Alpha
 Occup=    0.00000
   1    0.0042840717328452
   2     0.050900531562355
   3      0.14780533821143
   4      0.33573036393094
   5    0.0043641146672328
   6    -2.0675536783015e-13
   7     0.059908634594529
   8    -0.0099473244593721
   9    -2.6614630301341e-13
  10     0.020090460585405
  11     -0.05367104350045
  12    2.0108575053614e-13
  13    0.0043382459413655
  14    0.0081667566200823
  15    -0.0024652148647782
  16    9.6332118144606e-15
  17    -0.0031794136516217
  18    7.2748707866405e-15
  19      0.01661021500607
  20    0.0017204359517186
  21    3.5191139732623e-14
  22    -0.0027088883808702
  23    2.2919569329942e-14
  24     0.017745400995938
  25      0.14711176805434
  26      0.30741361024003
  27     -0.11020517917875
  28      0.13689288093551
  29    3.893779842216e-13
  30     -0.13898797663403
  31      0.11631122902465
  32    2.1505711118665e-13
  33     -0.15639728404348
  34    0.0024330865165146
  35    -1.9928480550612e-13
  36     -0.21779006569673
  37    0.00022014381988233
  38    0.0035120674835084
  39    -2.572073554217e-14
  40    -0.00044325149401901
  41    1.2868913685413e-14
  42     -0.01008824712082
  43    -0.00081771484239244
  44    -8.025149171756e-14
  45    -0.0010270148339189
  46    -2.8014101795161e-15
  47    -0.053478151531599
  48      -0.3544427175491
  49     -0.99707950673923
  50    -0.020207555275695
  51    2.3854111890779e-14
  52    0.0090830627612422
  53    -0.031201876710686
  54    -7.815779992577e-15
  55    -0.0053468647412822
 Sym= A
 Ene=               9
 Spin= Alpha
 Occup=    0.00000
   1     0.010463337685491
   2     0.097102972911783
   3        0.598922220968
   4     0.027060737878063
   5      0.13909418438391
   6    1.2859369000132e-11
   7      0.15858939774951
   8     0.038971205587939
   9    1.0754025268396e-11
  10     -0.15579397183667
  11     -0.30913210885599
  12    3.2851951289058e-12
  13     0.021182305775236
  14     0.027594578863648
  15    0.0025490430537028
  16    1.5146093320963e-13
  17    -0.010754954408892
  18    5.8991802484458e-14
  19      0.12983571558974
  20     0.039727895743436
  21    -2.9922203090592e-13
  22    -0.029160091831222
  23    8.8359461989841e-14
  24    -0.065003406301282
  25     -0.21022154166367
  26     -0.38574279324049
  27      0.17679292968493
  28    -0.090784098320779
  29    -1.4109404124471e-11
  30      0.38326285661064
  31    -0.075623023066102
  32    -1.2069634517718e-11
  33     -0.24020860233737
  34    -0.093850461330731
  35    -4.2164731471974e-12
  36     -0.73857392503097
  37    -0.031097891139467
  38      0.03788361148997
  39    5.031309904588e-13
  40     0.034405193690368
  41    -3.3586847430751e-13
  42     -0.17575645166838
  43     -0.10560465805224
  44    5.1430717117727e-13
  45    -0.029719572710391
  46    -8.0881588375626e-13
  47      0.14412187102926
  48       0.2404003934233
  49     -0.46473889363813
  50    -0.003904448094187
  51    -5.2904165035771e-13
  52    -0.011095016251901
  53    -0.072214569527782
  54    -9.5806463164553e-13
  55      -0.1643407156857
 Sym= A
 Ene=              10
 Spin= Alpha
 Occup=    0.00000
   1    1.7045497879889e-12
   2    7.3394615866917e-12
   3    1.4814296259489e-11
   4    -1.4085173026176e-11
   5    -2.7905952753257e-13
   6     -0.26160684438864
   7    9.2497119447956e-12
   8    -9.121488769846e-12
   9     -0.25030499654498
  10    3.4603880452383e-12
  11    -3.356662603922e-11
  12     0.095610579996828
  13    -3.7842850628369e-12
  14    2.3728363813036e-12
  15    -1.1305932636748e-12
  16    0.0023827275748476
  17    -9.1210580259658e-13
  18     0.026030324469052
  19    5.4037303216849e-12
  20    2.7279927835664e-12
  21     0.023106948050352
  22    2.7650030035075e-13
  23     0.058554817535703
  24    2.809642123511e-12
  25    1.2274699228792e-11
  26    1.693462874146e-11
  27    -3.1542236046483e-11
  28    3.0421951560667e-12
  29     -0.17291727759198
  30    -1.045278907273e-11
  31    -1.0475057397036e-12
  32      0.17580642134544
  33    2.0553411550873e-12
  34    3.2161714803342e-11
  35      0.55315269669643
  36    -1.8614546071874e-11
  37    -6.6668197512599e-12
  38    4.2612844370797e-12
  39    -0.075450665490485
  40    -1.8609327680904e-12
  41    -0.045634992430335
  42    -1.2653555616019e-11
  43    1.4425922611378e-11
  44    -0.047666730253316
  45    -4.054321033923e-12
  46      0.15528997393094
  47    -2.8837430214199e-11
  48    2.9540760219718e-11
  49    -1.1977231438926e-12
  50    4.2321273979561e-12
  51     0.041756255073068
  52    1.7801369632455e-12
  53    2.878753880885e-11
  54      0.30500171576941
  55    -8.3802708727963e-12
 Sym= A
 Ene=              11
 Spin= Alpha
 Occup=    0.00000
   1     0.027609399953457
   2     0.082918969052865
   3    -0.025374276722515
   4    -0.098558974243978
   5    -0.061863993839868
   6    6.0575632033152e-12
   7       0.1740177965647
   8      -0.1407949302912
   9    6.0795350229564e-12
  10      0.15774812433399
  11     -0.26705667364789
  12    -8.3204567575656e-12
  13     -0.04236627694358
  14     0.022497707323768
  15    -0.0051154857327674
  16    -3.3292194878181e-14
  17      -0.0165231485109
  18    -1.5856046660209e-12
  19     0.065178032430547
  20     0.014312049300998
  21    -9.1671627054175e-13
  22     0.010269901203082
  23    -3.5987012953571e-12
  24      0.10101141554225
  25      0.34761559083962
  26      0.24155210068467
  27      -0.6963413929992
  28     0.056981776005526
  29    2.4945308641206e-11
  30     -0.15847905803492
  31     -0.13065398052012
  32    -1.2275048997577e-12
  33      0.18114810161196
  34      0.45153443735748
  35    -3.2126047355467e-11
  36     -0.22973091927851
  37     -0.08312993391439
  38     0.074577947745636
  39    4.3594073255701e-12
  40    -0.039577970857605
  41    2.9497077491792e-12
  42     -0.10851013811443
  43      0.27816476256161
  44    2.3877217879647e-12
  45    -0.060458630285985
  46    -9.7504376659156e-12
  47     -0.51157278300098
  48       0.8658801924942
  49     -0.12713940294776
  50     0.087868423386528
  51    -2.4090823845526e-12
  52     0.017138485468816
  53      0.47381481569599
  54    -1.9459669020498e-11
  55    -0.015203669011957
 Sym= A
 Ene=              12
 Spin= Alpha
 Occup=    0.00000
   1    0.0035876430165282
   2    -0.081706919480565
   3     -0.56181154423961
   4       1.0118838804922
   5     -0.10161321341013
   6    4.6117202998394e-11
   7     0.088544975928918
   8      0.17892695892952
   9    3.0837833119214e-11
  10       0.2000966569725
  11      0.96590395000438
  12    1.776155515263e-11
  13    -0.059207273742911
  14    -0.034738546954415
  15     0.063530932031116
  16    9.3907859243814e-13
  17    0.0065700545773606
  18    1.8035104526721e-12
  19    -0.0009084881705744
  20     -0.12629268332345
  21    1.8038689686631e-12
  22     0.028483921773413
  23    4.5951337722833e-12
  24      0.11312727691866
  25      0.22753677778303
  26     -0.47675828220774
  27     -0.55890060346239
  28     -0.21934823743936
  29    -7.6591860841034e-11
  30       0.4734506276409
  31     -0.39257131808917
  32    -4.5086889883299e-11
  33      0.22337795973767
  34      -0.5071517217447
  35    2.3044201810796e-11
  36     -0.29655763231557
  37      0.11163249938874
  38    -0.00010918044369216
  39    -5.1502610088902e-12
  40    -0.010214432055764
  41    -4.5141563328401e-12
  42      0.30299438364539
  43    -0.077962017244214
  44    -4.9276437184378e-12
  45    -0.014168288411038
  46    6.878251202192e-12
  47      0.34639875439426
  48      0.96335011695209
  49     -0.71996086512853
  50     0.026036075265443
  51    9.3310242642195e-13
  52    -0.085320877845331
  53     -0.21120736419352
  54    1.9303593222782e-11
  55      0.27224049374539
 Sym= A
 Ene=              13
 Spin= Alpha
 Occup=    0.00000
   1     0.095248402204586
   2      0.33566705403958
   3      0.17867786259032
   4       0.3143905633064
   5     -0.46879439940437
   6    -2.5492806467998e-11
   7     -0.27543630201544
   8      0.14307603054808
   9    -1.7305749915337e-11
  10     -0.25667927238769
  11      0.33966475108559
  12    -3.8544811778455e-13
  13     -0.26076454617067
  14      0.07917234212413
  15    -0.054365296776199
  16    1.9121550605223e-12
  17    -0.055991276220982
  18    -7.2877223846621e-14
  19     0.054141229768923
  20     -0.25072941734989
  21    3.5760989491571e-12
  22    -0.0040104006129833
  23    -1.877626657183e-12
  24     -0.19887080139902
  25     -0.63271602825634
  26     -0.30737301528546
  27     -0.13833649970822
  28      -0.2570819662194
  29    3.8461292938839e-11
  30     -0.30692501036457
  31     -0.29510797853999
  32    2.0331954697971e-11
  33     -0.11781526963105
  34      -0.1663009883912
  35    -9.1977640795423e-12
  36      -0.3105360415603
  37      -0.1004794309062
  38     -0.15827685561383
  39    4.0805289702693e-12
  40     -0.11131717570083
  41    2.9760435849574e-12
  42     -0.19079932711435
  43      0.13848254785443
  44    3.7266115675837e-12
  45    -0.061177854566759
  46     1.83976446413e-12
  47      0.12060143504691
  48      0.17647274601806
  49     -0.22195031571995
  50     -0.17085943391973
  51    3.4045432165855e-13
  52     0.082533586199647
  53     -0.20736724088086
  54    -9.774575652348e-12
  55      0.30284835453088
 Sym= A
 Ene=              14
 Spin= Alpha
 Occup=    0.00000
   1     -0.43077763123058
   2     -0.71517022253607
   3       4.2807854106743
   4       4.0598991806067
   5    -0.041740219448846
   6    2.8625116689646e-11
   7    -0.063538735306345
   8     -0.83903301154125
   9    2.2744013695834e-11
  10      -3.2269450374755
  11      0.25668498027976
  12    1.0538520373777e-11
  13     -0.77900922137925
  14      0.18408261550393
  15      0.14737724777357
  16    1.5286649332517e-12
  17     0.012586147775969
  18    3.3899600471936e-12
  19       1.0039106806136
  20      0.42559971208679
  21    -1.255985634003e-13
  22     0.074764130928783
  23    1.4227632289374e-12
  24      0.46711712398878
  25      0.94768907186721
  26      -6.9121959698393
  27      -2.9919051128491
  28    -0.080918049656784
  29    -3.9283657037514e-11
  30      -1.0729368119067
  31      -1.1858508920527
  32    -3.9212230476892e-11
  33      -2.0077857216402
  34     -0.81395926449007
  35    9.1823956704527e-12
  36     -0.87285316453718
  37     -0.43342155191479
  38      -0.4989008614697
  39    -2.6902794458569e-12
  40      0.27748466425086
  41    2.1699595601848e-12
  42     -0.48804485916906
  43     -0.34844721867415
  44    -9.9228973377789e-13
  45     -0.11704508098574
  46    3.0325256053192e-13
  47    -0.081402623705788
  48       1.4183350070869
  49      0.02880971549645
  50      0.15609316526604
  51    -7.9908777868429e-13
  52     -0.17222006349578
  53     -0.63059142168432
  54    1.5990410095462e-11
  55      0.13232392145299
 Sym= A
 Ene=              15
 Spin= Alpha
 Occup=    0.00000
   1     0.086590584176281
   2      0.18506477013109
   3     -0.42192217519734
   4     -0.33546137447076
   5      -0.7543332954597
   6    2.4663595304758e-11
   7      0.31275401472234
   8       1.9566231768952
   9    -2.2542180713451e-11
  10     -0.45214280788893
  11     -0.45989981945282
  12    -8.9881848592673e-12
  13      0.26692083036544
  14     -0.25468068703616
  15      0.56246348495452
  16    -1.8567493895388e-11
  17      0.11072091878771
  18    4.1659376475147e-12
  19      0.30564176776908
  20     -0.47319011055542
  21    1.8539591786313e-11
  22     -0.25317694171649
  23    4.6860803741205e-13
  24     -0.15743142591093
  25     -0.27017469758891
  26       1.5679774012196
  27       1.2332875259533
  28      0.13452418230357
  29    -1.4902719640756e-11
  30     0.077815569720912
  31     -0.58157433418704
  32    2.0454573424534e-11
  33     0.016094473365738
  34      0.50499562592944
  35    9.5290068629632e-12
  36     -0.18673644066755
  37     -0.11763728093747
  38      0.16619182397562
  39    2.0656153861707e-12
  40      0.18431980271846
  41    -6.569845327319e-12
  42      0.58174329759546
  43     -0.81789269235648
  44    -1.9484897870781e-12
  45     -0.26395639522046
  46    1.7068286467795e-11
  47     -0.10542338627736
  48      -1.7442916657236
  49     -0.16401520712319
  50      0.10681795787709
  51    -1.0381985208875e-12
  52     0.046090554708787
  53      0.65966343815324
  54    -6.1515805685075e-12
  55     -0.23918701865343
 Sym= A
 Ene=              16
 Spin= Alpha
 Occup=    0.00000
   1     0.008081229950132
   2     0.019934120735208
   3    0.0050282867952448
   4      -0.2128903518128
   5    -0.0082033632716351
   6     -0.19211361617103
   7    -0.019228492490388
   8    -0.004780315587666
   9     -0.33541430041096
  10     0.005628731527194
  11    -0.025252746019504
  12       2.0378122537957
  13      0.35331736715825
  14    0.0092478063438492
  15    -0.010182836498257
  16     0.014935807405446
  17    -0.0039323770194757
  18    -0.00062287557107424
  19    -0.018219226540481
  20    -0.012409939110207
  21    -0.079704369559425
  22    -0.0038544170210302
  23    -0.027176800401498
  24    -0.013818309284406
  25    -0.029285885574361
  26      0.06395998601981
  27      0.14029455239149
  28    -0.0023961503225376
  29       0.1766340669547
  30    0.0032578031078251
  31    -0.026711636442075
  32     0.054483455248325
  33      0.03119260509832
  34      0.10610787373021
  35      -1.7610554508294
  36     -0.16174988864233
  37    0.0010000755823383
  38    0.0017536372446486
  39     0.010432101008468
  40    -0.010316194136973
  41     0.016584488156064
  42    -0.033715904880646
  43    0.0078340801685008
  44     -0.10361621966756
  45    -0.00078491903298946
  46    -0.082485655895715
  47    -0.0065470171112865
  48      0.11052363219361
  49     0.018255356518479
  50    -0.013297001863237
  51    -0.0037081804121539
  52    0.0067731161457338
  53    -0.084426737484516
  54     0.087827789167139
  55     0.076954609965929
 Sym= A
 Ene=              17
 Spin= Alpha
 Occup=    0.00000