[Molden Format]
made by pyscf v[2.13.1]
[Atoms] (AU)
O   1   8     0.21099695469856     0.00000000000000     2.15462460678861
N   2   7    -0.44776862100326     0.00000000000000    -0.03589262653049
H   3   1     1.18163474748449     0.00000000000000    -1.17386889907833
[GTO]
1 0
 s    8 1.00
                 11720  0.00070964594651845
                  1759  0.0054672722921914
                 400.8   0.027823118610189
                 113.7    0.10474773971146
                 37.03    0.28292084635691
                 13.27    0.44849523869833
                 5.025    0.27081688521277
                 1.013    0.01545029160744
 s    8 1.00
                 11720  -0.00031444341168873
                  1759  -0.0024821376810179
                 400.8  -0.012316355381583
                 113.7  -0.050538917343672
                 37.03   -0.13938490331632
                 13.27   -0.32507749481778
                 5.025   -0.22984830758785
                 1.013     1.0953793467883
 s    1 1.00
                0.3023                   1
 s    1 1.00
               0.07896                   1
 p    3 1.00
                  17.7   0.062679166281506
                 3.854    0.33353656587936
                 1.046    0.74123964163973
 p    1 1.00
                0.2753                   1
 p    1 1.00
               0.06856                   1
 d    1 1.00
                 1.185                   1
 d    1 1.00
                 0.332                   1

2 0
 s    8 1.00
                  9046  0.00069961741342552
                  1357  0.0053860546299287
                 309.3   0.027391021189057
                 87.73    0.10315059198201
                 28.56    0.27857066331743
                 10.21    0.44829484945412
                 3.838    0.27808592839527
                0.7466   0.015431561233271
 s    8 1.00
                  9046  -0.00030499009595337
                  1357  -0.0024080263785077
                 309.3   -0.01194444872518
                 87.73  -0.048925992909017
                 28.56   -0.13447272472496
                 10.21   -0.31511257770011
                 3.838   -0.24285783254964
                0.7466     1.0943822068542
 s    1 1.00
                0.2248                   1
 s    1 1.00
               0.06124                   1
 p    3 1.00
                 13.55   0.058905676772132
                 2.917    0.32046110671427
                0.7973    0.75304206179207
 p    1 1.00
                0.2185                   1
 p    1 1.00
               0.05611                   1
 d    1 1.00
                 0.817                   1
 d    1 1.00
                  0.23                   1

3 0
 s    3 1.00
                 13.01   0.033498726389998
                 1.962    0.23480080117413
                0.4446     0.8136829578829
 s    1 1.00
                 0.122                   1
 s    1 1.00
               0.02974                   1
 p    1 1.00
                 0.727                   1
 p    1 1.00
                 0.141                   1

[5d]
[7f]
[9g]

[MO]
 Sym= A
 Ene=               0
 Spin= Alpha
 Occup=    1.00000
   1    -0.00083454288835422
   2    -0.0091862123274197
   3    -0.026112504976528
   4    -0.026343539498632
   5      0.52660682144892
   6    -9.3791244705878e-17
   7    -0.088775436255347
   8      0.41109509563278
   9    -5.7310616465439e-17
  10    -0.064438396541639
  11     0.087406817032454
  12    7.4672710875677e-16
  13    -0.010316784409585
  14    -0.002340259416221
  15    -0.0023252751080987
  16    7.3672987016071e-17
  17    -0.00074045437849588
  18    3.2032482615528e-17
  19    0.00081389817007861
  20     -0.01320570770346
  21    -1.2930268664757e-16
  22    -0.0041394963871093
  23    -1.5269789040265e-16
  24    0.0013749358622859
  25      0.10596306647773
  26      0.26150949055872
  27      0.12832899621398
  28     -0.36609187335144
  29    3.1179813737504e-18
  30    -0.039005680206044
  31     -0.26702671507374
  32    -3.7833625008947e-17
  33    -0.0018200302254754
  34    -0.049899537605846
  35    -1.0435553240539e-15
  36    -0.0036529072463123
  37    -0.011504720139075
  38     0.025390066930584
  39    -4.6460205153218e-17
  40    -0.0090603762136275
  41    8.7723228619268e-17
  42     0.013156087186818
  43    1.1421211964165e-05
  44    -1.6948827525014e-16
  45    -0.0073353059141998
  46    -1.9931089657975e-16
  47     -0.26076663006256
  48     -0.13927790317599
  49    -0.024129885742875
  50     0.010824560047692
  51    3.521850782665e-17
  52    -0.014177570141566
  53    -0.0071027536310345
  54    9.303250573665e-17
  55     0.019273145031813
 Sym= A
 Ene=               1
 Spin= Alpha
 Occup=    1.00000
   1    0.00040187260081783
   2    0.0071246746850157
   3     0.021335809832982
   4     0.014419374062743
   5      0.39352500643212
   6    -1.0840324198362e-16
   7     -0.12913892425326
   8      0.24034554769213
   9    -6.5075851048206e-16
  10    -0.095392047756907
  11     0.003961775589329
  12    -9.7521794904952e-16
  13     -0.00795169943709
  14    0.0091828815254917
  15    -0.017219824950121
  16    -6.4756882063994e-17
  17    -0.0048014224973092
  18    1.183520093476e-17
  19     0.012780436601313
  20    -0.018890226271444
  21    5.6462779974713e-16
  22     -0.00175840472151
  23    3.0198822371416e-17
  24    0.0007261312219711
  25     -0.12695865234854
  26     -0.20606095334347
  27    -0.024073372995735
  28      0.41600491290938
  29    -1.0133432765191e-16
  30    -0.023841894851864
  31      0.19266265058525
  32    8.3806456461272e-16
  33     0.010054758130982
  34     0.019185981934751
  35    6.1175650659213e-16
  36    -0.0034744617847538
  37    -0.016636897472337
  38     0.015483952493806
  39    -1.4765745631157e-17
  40     0.020588141123094
  41    -2.1655906818339e-17
  42    0.0035607920974121
  43    -0.008918775123025
  44    4.612734506574e-16
  45    -0.000414626607795
  46    3.0523414167653e-16
  47      0.18721451961223
  48       0.0201810900619
  49    -0.0014829149579806
  50    -0.011521197455817
  51    -3.3732750993152e-17
  52     0.014855548207686
  53    0.0073274365101315
  54    -1.7636199817308e-16
  55    -0.0012076384698062
 Sym= A
 Ene=               2
 Spin= Alpha
 Occup=    1.00000
   1     0.002032545348978
   2     -0.16677013129533
   3      -0.1782579922168
   4    0.0067537581997874
   5     0.061760339332849
   6    -1.3101945390396e-15
   7      0.34085333068664
   8      0.04106268165105
   9    -1.0494980715159e-15
  10      0.22205441004877
  11    -0.0079385511495464
  12    -7.1271226185542e-17
  13    0.0067310937631621
  14    -0.016087024318604
  15    -0.010068430154369
  16    6.1525084758119e-17
  17    -0.001276852770901
  18    -1.475741474307e-17
  19    -0.015466926026373
  20    -0.012396355402384
  21    1.5783198312931e-16
  22    -0.0016206259021946
  23    8.1297507663133e-17
  24     -0.02418802252088
  25     0.098105755689069
  26      0.25239608554086
  27     0.022747427602867
  28    -0.036016888636469
  29    -1.4498975345851e-15
  30     -0.45736950583503
  31    -0.030892392895196
  32    -6.1859429473171e-16
  33     -0.11558081303935
  34    4.4872996267757e-05
  35    -5.501362180936e-16
  36    -0.0016132953513234
  37    -0.032145522893974
  38    -0.037794798417118
  39    -1.4402836952872e-16
  40    0.0045139872760056
  41    -9.199580442612e-18
  42     0.020176711051053
  43    0.0056154595763193
  44    3.029612233933e-17
  45    -0.0090323896194166
  46    -1.3743726245911e-16
  47       0.2476106741187
  48     0.064409355027703
  49    0.0016838458716644
  50     -0.02420917051278
  51    -4.5755581816548e-17
  52    0.0082092637843298
  53    -0.0038017881144314
  54    2.0846348464842e-16
  55    0.0098689702551039
 Sym= A
 Ene=               3
 Spin= Alpha
 Occup=    1.00000
   1    4.8529739643543e-16
   2    1.3681583171653e-16
   3    -1.241397599477e-14
   4    -3.7647134898839e-14
   5    2.123379053382e-16
   6      0.46121976843488
   7    4.7956196066202e-16
   8    1.7417567924404e-15
   9      0.32974340462069
  10    9.6864529439408e-15
  11    2.0977296680766e-15
  12     0.030802567338183
  13    7.6314322779776e-15
  14    -7.231390082351e-17
  15    -3.7438237074623e-17
  16    -0.026824120160976
  17    3.2333547164671e-17
  18    -0.0071124454579522
  19    -1.782597748671e-15
  20    -6.2202605798343e-16
  21    -0.038877470563028
  22    -1.667065006435e-16
  23    -0.0090210235614492
  24    1.787571102565e-16
  25    5.916063661919e-16
  26    1.1094807055238e-14
  27    3.6904934097033e-14
  28    -2.2915418007775e-16
  29      0.36554341648903
  30    -1.1955377158392e-15
  31    3.2595122846713e-15
  32      0.21781160050653
  33    1.2603900427029e-14
  34    5.267681740547e-15
  35     0.017054177082774
  36    9.4152521502434e-15
  37    2.0725845608884e-16
  38    -5.882383046589e-19
  39     0.037460083469865
  40    -7.3410771811888e-17
  41     0.019463655437898
  42    2.8498824115094e-15
  43    3.1193485266159e-15
  44    -0.0022756620392066
  45    7.9764755696036e-16
  46     0.013052508618961
  47    2.3373721604046e-15
  48    1.5976640296163e-15
  49    -4.4446444677122e-15
  50    -3.6305439306614e-16
  51    0.0098714669262827
  52    -1.2761443042092e-16
  53    -2.4546430310808e-15
  54    -0.0027623694064091
  55    6.0945664885034e-16
 Sym= A
 Ene=               4
 Spin= Alpha
 Occup=    1.00000
   1      0.02940670772234
   2      0.22528912481413
   3      0.36912001835741
   4     0.082260322872599
   5     0.075943936792458
   6    5.4774364273789e-16
   7      0.37041003658735
   8     0.031473999193486
   9    2.2939393966786e-15
  10      0.18037503219823
  11    -0.0049104848973115
  12    -1.8417139781127e-16
  13    -0.0031872919560347
  14     -0.02051105983755
  15    -0.0092905973461154
  16    9.8466008754126e-17
  17    0.00070190710637364
  18    6.2731149774409e-17
  19    -0.015466351207558
  20    -0.0051932512950901
  21    -1.0285604028301e-15
  22    0.00014579523039557
  23    -3.8023257426468e-16
  24    -0.059819002683231
  25      -0.3584002634941
  26     -0.31258885794259
  27    -0.046310282834457
  28    -0.070084112009522
  29    3.7506025173302e-16
  30    -0.077538791670103
  31    -0.0087980682146894
  32    -1.3964497761399e-15
  33    -0.049804027967808
  34    -0.0034997960019236
  35    2.1917718401287e-16
  36    -0.0083841664941238
  37    -0.009121585444449
  38    -0.0061554164198738
  39    2.1220520009609e-17
  40    -0.0056757102624773
  41    1.051678513821e-17
  42    -0.0093448878055745
  43    -0.017173951964083
  44    -1.2431196413075e-15
  45    0.0062782660273229
  46    -4.6585330229061e-16
  47     -0.13838142485199
  48     0.021389074205664
  49    0.0035288548758944
  50      0.01912005305149
  51    8.6096308420114e-17
  52     -0.01412717912172
  53    -0.0096728822593732
  54    4.1446896386709e-17
  55    0.0099447325244125
 Sym= A
 Ene=               5
 Spin= Alpha
 Occup=    1.00000
   1    -0.034795240109608
   2      0.38929974393816
   3      0.46670477335475
   4     0.055144063108838
   5     0.016509726162004
   6    2.4104356168525e-16
   7     0.059501834066501
   8     0.010046125081673
   9    4.0066908435485e-19
  10        0.021197112082
  11    -0.0013550383354538
  12    3.4992150712875e-16
  13    0.0047989788731809
  14    0.0071178565204691
  15    0.0023460788981277
  16    8.8756215012917e-17
  17    0.0001461988562101
  18    5.6346292295411e-18
  19    0.0086922258748786
  20    -7.0922729845916e-05
  21    -3.2967164976281e-16
  22    0.0012984702920171
  23    3.604283784942e-17
  24      -0.1143559407564
  25      0.25135067594855
  26      0.12962866958185
  27    -0.0086735419062006
  28     0.047893244645641
  29    -4.6323942504242e-17
  30    -0.030255643069038
  31    -0.021291629457443
  32    -8.2561456802096e-17
  33    -0.078327358073449
  34    0.00087384574177124
  35    -3.7721658997734e-16
  36     -0.01108649782099
  37     0.011283631633002
  38    0.0039866837774972
  39    2.0627809016006e-17
  40    0.0031416916703734
  41    -4.9031149530637e-17
  42    -0.0083628764617298
  43    -0.0025963521753426
  44    -7.729867633605e-17
  45    -0.010520094944429
  46    -2.1045467714666e-18
  47      0.14658951181176
  48    -0.00076654909229355
  49    0.00015101719278384
  50    -0.019511745567934
  51    5.2691958903408e-17
  52     0.012510941053972
  53      0.00888208395377
  54    -1.0721822095569e-16
  55    -0.0044668781522616
 Sym= A
 Ene=               6
 Spin= Alpha
 Occup=    1.00000
   1     0.021179279658339
   2     0.052480422625408
   3     0.065534410105931
   4    0.0090321412307838
   5    0.0056620469651252
   6    1.5789927076599e-16
   7     0.036172395372708
   8    0.0035913304718682
   9    -2.5487970431435e-15
  10     0.020850015021931
  11    -0.00052612055431099
  12    -1.9656042461278e-15
  13    0.00096415988100726
  14    -0.0010745056673016
  15    -0.00051180992657349
  16    -7.6148665227055e-16
  17    1.4496559257609e-05
  18    -2.5106434910717e-16
  19    -0.0015221826692012
  20    -0.0012000500418435
  21    2.8651906464907e-15
  22    -6.499307197366e-05
  23    6.9414157070541e-16
  24      0.99285394508038
  25      0.01335210085908
  26    -0.00099988069194428
  27    -0.0043280279668248
  28    0.00026140040649623
  29    1.2339150370626e-16
  30    -0.017147736147517
  31    -0.0069151733959038
  32    3.5667871358172e-15
  33    -0.012293859368073
  34    -0.00086349145479528
  35    1.521583055578e-15
  36    -0.0010816283356627
  37    0.00065592072759504
  38    -0.00079249124453099
  39    1.6585401042272e-16
  40    0.00057792282749592
  41    4.9365817683713e-17
  42    -0.0011451453185618
  43    -0.0009059149431306
  44    2.3515841323097e-15
  45    -0.0013576381869646
  46    1.093389424421e-15
  47     0.013450208868655
  48     0.008567142203509
  49    0.00085502154256387
  50    -0.0010884840117326
  51    -1.090277668957e-16
  52    0.00036084155804402
  53    -0.0016835202247643
  54    -3.9806022160954e-16
  55    0.0018910259627425
 Sym= A
 Ene=               7
 Spin= Alpha
 Occup=    1.00000
   1       1.0008705957423
   2    0.0059078500572546
   3    -0.015399511665962
   4    -0.0058541146796484
   5    -0.002135147177663
   6    8.257194262346e-17
   7    -0.0096516381065709
   8    0.0014156376168952
   9    -9.6199757879234e-17
  10    0.0040173965836136
  11    0.00039430445578021
  12    -5.0298596822012e-17
  13    0.00099219559545027
  14    0.00097563458368635
  15    0.0003503193199983
  16    1.9886479427258e-17
  17    0.00029144121941551
  18    -2.2568600402783e-17
  19    -0.0011876536454904
  20    -0.00073370712237187
  21    6.1446988347053e-17
  22    -9.5438221080959e-05
  23    4.2445776700457e-18
  24    -0.022971576966698
  25     0.015531843394911
  26     0.023447143477854
  27    0.0044851611362211
  28    0.0030336023557443
  29    3.7343484237096e-17
  30    0.00078918734500481
  31    0.0020931960752227
  32    1.1946731203049e-16
  33    0.0077384298421729
  34    0.0002018386509313
  35    -2.4597073596785e-17
  36    0.0009973611953887
  37    0.00020452230443153
  38    -4.1897849158226e-05
  39    -5.3378556516914e-18
  40     0.000220069021036
  41    -2.821152729091e-18
  42    0.0022418796500062
  43      0.00197315209224
  44    7.3149772230739e-17
  45    -0.00014298559995788
  46    3.5216581538263e-17
  47    0.0074528643118017
  48    0.00096719962059496
  49    -0.00025132466328331
  50    -0.00091836014610885
  51    9.1272651570418e-19
  52    0.00046329301946376
  53    -0.00014565235608726
  54    -5.7964226574316e-18
  55    -0.00024571377835196
 Sym= A
 Ene=               8
 Spin= Alpha
 Occup=    0.00000
   1    6.4189287055623e-16
   2    1.019903673074e-15
   3    -1.0563068726641e-14
   4    -3.6034522332018e-14
   5    -1.671890906555e-16
   6     -0.48705437940765
   7    2.9421484644936e-16
   8    2.8112500819254e-15
   9     -0.38479579748889
  10    8.753865010989e-15
  11    1.4174074673693e-15
  12     -0.11402816207154
  13    9.6004618251421e-15
  14    1.4618758463705e-17
  15    9.6425132684394e-17
  16    -0.0095929017017217
  17    2.9528591329499e-17
  18    -0.0026927304266009
  19    -2.0240233160988e-15
  20    -1.0026234333172e-15
  21    -0.0001619551898096
  22    -3.2184254497385e-16
  23    -0.0064429863640155
  24    -8.4436492298463e-16
  25    -1.1874005565012e-15
  26    2.0150665453987e-14
  27    4.4125899679324e-14
  28    2.5623272517322e-16
  29      0.51623307299955
  30    3.2502438032521e-16
  31    5.8235604314777e-15
  32      0.45078750887603
  33    9.2844699274429e-15
  34    7.4460184490983e-15
  35      0.12868402743886
  36    5.9509550741026e-15
  37    2.8116114294557e-16
  38    9.7518481319446e-17
  39    -0.014912531946218
  40    7.4103784216603e-17
  41     0.015257638437783
  42    2.9396940116416e-15
  43    9.6169620835134e-16
  44    -0.0046372034925622
  45    7.7319580530365e-16
  46     0.024394841387465
  47    -9.3879516695181e-16
  48    -1.1244983339786e-14
  49    -8.0118084446107e-15
  50    4.3814252694137e-16
  51     0.018989731747211
  52    -4.3844741352119e-16
  53    2.8601551917416e-15
  54     0.024822124005581
  55    -1.4775993100587e-15
 Sym= A
 Ene=               9
 Spin= Alpha
 Occup=    0.00000
   1    -3.1523531494885e-16
   2    -7.3392676243199e-16
   3    1.5088706830582e-15
   4    -3.6019466229323e-14
   5    -3.9450655633582e-16
   6     -0.61625078430713
   7    7.847869115706e-16
   8    1.9883989886075e-15
   9      0.22766677244285
  10    2.0115998330193e-15
  11    2.3167067760978e-15
  12      0.35994544116028
  13    1.1463361757073e-14
  14    1.2499596470159e-16
  15    1.8622345872704e-16
  16    -0.080260200132132
  17    -7.92623857489e-17
  18    -0.031264212350585
  19    -4.7556207203857e-16
  20    -1.0757411224369e-15
  21     -0.22579695011015
  22    -1.6333014573781e-16
  23    -0.048430684414606
  24    -1.3219146266075e-16
  25    -3.0438706727156e-16
  26    3.0327403783844e-15
  27    3.5608388043362e-14
  28    3.0065381729891e-16
  29     -0.48144219798412
  30    5.9968154989339e-16
  31    -1.3476964467305e-17
  32      0.18239897615099
  33    3.5950230007074e-15
  34    4.3707440755987e-15
  35    -0.049678158710275
  36    7.2152876120952e-15
  37    -2.9716389763458e-17
  38    5.9874118730553e-17
  39      0.19431677017203
  40    2.4578558371634e-16
  41    -0.054717634681817
  42    3.0070902045108e-16
  43    -1.2670770687179e-15
  44      0.36921276017275
  45    -7.1128982072586e-17
  46    -0.0045862714670438
  47    -1.3890339844286e-15
  48    2.393408068991e-15
  49    -4.4076039279978e-15
  50    5.2668975353449e-16
  51    0.0047888584357844
  52    -1.4448425445676e-16
  53    -1.549855185244e-15
  54     0.036222746006268
  55    2.1167519459314e-15
 Sym= A
 Ene=              10
 Spin= Alpha
 Occup=    0.00000
   1    4.7094651740107e-16
   2    1.3146230914215e-15
   3    -5.8083820387621e-15
   4    -5.0486592128763e-14
   5    1.4532475552708e-16
   6      0.05373294835311
   7    -1.317412345745e-15
   8    3.0654419551089e-15
   9     0.030585357973685
  10    6.9685587107422e-15
  11    2.9220219193567e-15
  12      0.10628977837217
  13    1.3714634251679e-14
  14    2.0839304619539e-16
  15    5.9437880850273e-17
  16    -0.0092362349479875
  17    1.0713759565329e-16
  18    0.00046520383397316
  19    -1.5635650693573e-15
  20    -1.7690399233137e-15
  21    -0.0066514209874075
  22    -3.705999656234e-16
  23     -0.12434539800124
  24    -1.6569821759353e-15
  25    -3.3492856348017e-15
  26    2.3489833316947e-14
  27    6.5556647593083e-14
  28    1.1301535188166e-15
  29     -0.54247547299745
  30    -2.3874543062793e-16
  31    5.7882371598898e-15
  32      0.32635678479861
  33    4.7364399855905e-15
  34    1.0083205798375e-14
  35     0.080701613035209
  36    8.3834644785508e-15
  37    8.4357368464208e-16
  38    1.0636364038573e-16
  39     -0.48054356060163
  40    1.2686449152425e-15
  41       0.2398611087918
  42    3.7831036080281e-15
  43    -1.1096527259008e-15
  44      -0.2117011435343
  45    2.5561231863265e-15
  46      0.33917700563729
  47    -2.9543697254728e-15
  48    -1.9254101168184e-14
  49    -1.3135526515258e-14
  50    3.3699913171615e-16
  51    0.0088318974225785
  52    -1.0098020903151e-15
  53    4.9867386476197e-15
  54       0.1312051653934
  55    -2.5206280860024e-15
 Sym= A
 Ene=              11
 Spin= Alpha
 Occup=    0.00000
   1     0.042354699615208
   2      0.19655442324271
   3      0.60533988197136
   4     -0.67192516372993
   5      0.10339365757312
   6    -1.8449388594167e-16
   7     -0.22836979905087
   8     -0.28780109101513
   9    1.1016641905498e-16
  10    -0.037752136828923
  11     -0.33722397927449
  12    -2.5757384108583e-15
  13      0.24181191400194
  14     0.025041789382255
  15    -0.013428261041236
  16    -1.3324038142539e-16
  17     0.039902730319262
  18    4.6101012976782e-16
  19     0.016831327926191
  20    -0.079052360460412
  21    -5.1347460409458e-16
  22     0.092747200934374
  23    1.3533844792386e-15
  24    -0.020780822425367
  25     -0.11550045217133
  26    -0.050379633391163
  27       1.0229313951393
  28     0.037067299286021
  29    1.8335674949084e-15
  30     0.020722227285635
  31      0.34908645917518
  32    -1.0133078108008e-15
  33      -0.8336884000379
  34      0.27743535825791
  35    3.216484313257e-15
  36    -0.085292328257987
  37      0.20342255346442
  38    -0.013858245787647
  39    1.4882137978766e-15
  40      0.34846172553412
  41    -1.3151551575038e-15
  42     -0.22911150518067
  43     -0.10807068793345
  44    4.6085822431034e-16
  45      0.57061099792341
  46    -1.9645748580253e-15
  47     -0.41551629496523
  48     -0.65585872521121
  49     -0.11165046368425
  50    0.0072285425591018
  51    -5.4810338199065e-16
  52     -0.10469717873388
  53     -0.17122634879955
  54    -1.2163331298761e-15
  55    -0.084768257073792
 Sym= A
 Ene=              12
 Spin= Alpha
 Occup=    0.00000
   1    -3.4824402578724e-15
   2    -6.4886039162462e-15
   3    4.278117472379e-14
   4    5.7631645779805e-14
   5    -6.3216685481807e-17
   6      0.10980248304434
   7    7.1241089198869e-16
   8    -8.5212134988697e-15
   9      0.15287563011367
  10    -3.0715651728321e-14
  11    -3.6629496725124e-15
  12       -0.244771661705
  13    -1.3164372454955e-14
  14    5.3759966692298e-16
  15    -9.9615183967915e-16
  16    -0.041093673746947
  17    -2.7045320019736e-16
  18      0.18896162745531
  19    6.956531507491e-15
  20    4.0931446213433e-15
  21     -0.18700358945893
  22    -1.4277665258918e-16
  23      0.47694825741271
  24    3.0394525163321e-15
  25    5.0241416598591e-15
  26    -6.4273404758793e-14
  27    -5.0307162355711e-14
  28    -1.5511112342975e-15
  29     -0.16597988730743
  30    -3.1167202481319e-16
  31    -1.6036243667595e-14
  32    -0.041742864490017
  33    -3.5115451085107e-14
  34    -3.4572684902556e-15
  35      0.68214340434542
  36    -6.6041635712234e-15
  37    -1.9736695182065e-15
  38    2.4736415386346e-16
  39     -0.15585802603812
  40    -1.2299838794445e-15
  41     -0.23956873415817
  42    -7.8129460862027e-15
  43    -4.8318348188281e-15
  44     -0.17506979820356
  45    -1.9862743607425e-15
  46     -0.56317738536139
  47    2.6444156081745e-15
  48    1.2797827073037e-14
  49    3.753948969356e-15
  50    -3.8603530940681e-16
  51     -0.17345727409294
  52    1.9513012767119e-15
  53    -3.8507059735452e-15
  54    -0.049098304081097
  55    4.3959885284582e-15
 Sym= A
 Ene=              13
 Spin= Alpha
 Occup=    0.00000
   1    -4.4972375107925e-15
   2    -8.1829428382868e-15
   3    5.8468121538383e-14
   4    6.6521278801891e-14
   5    1.5837618943951e-15
   6     0.092003078025842
   7    2.7044532263753e-15
   8    -9.4933711028951e-15
   9     -0.46404492737592
  10    -3.7084167482485e-14
  11    -2.9242856660365e-15
  12     -0.49512832958635
  13    -1.1182650461577e-14
  14    9.6742597516239e-16
  15    -3.0370354302869e-16
  16    -0.049371979491273
  17    -1.0932919603953e-15
  18     -0.11363435578592
  19    6.8868041104799e-15
  20    3.5536855342558e-15
  21     -0.10900787014955
  22    1.6023510095315e-15
  23      0.60828237252491
  24    1.8555379327623e-15
  25    2.8762086545548e-15
  26    -5.8542021823374e-14
  27    -5.6939192587037e-14
  28    8.5154137192966e-16
  29      0.13978953294859
  30    -2.3285723510408e-16
  31    -1.573055244123e-14
  32      0.23761663885461
  33    -4.6587525829424e-14
  34    -9.130884072774e-15
  35       0.6852737617298
  36    -1.7262827070806e-14
  37    -3.173311099121e-15
  38    1.2280379133738e-15
  39     0.096764188819543
  40    4.2111356816434e-16
  41      0.25866332163668
  42    -1.1367483780026e-14
  43    -1.2110246519487e-14
  44      0.30091972738822
  45    -4.1437643325388e-15
  46      0.52989851380091
  47    -2.9488748608392e-15
  48    3.3796302599534e-15
  49    3.750360045795e-15
  50    1.119442851211e-15
  51     -0.38281836472547
  52    2.5130077198796e-15
  53    2.9772814947742e-15
  54     -0.33743561488259
  55    2.8964218072441e-15
 Sym= A
 Ene=              14
 Spin= Alpha
 Occup=    0.00000
   1    -1.9783060320063e-16
   2    4.952391144531e-16
   3    1.8016540702871e-14
   4    5.7885774675592e-14
   5    -5.7632827608509e-16
   6     -0.27584201889293
   7    -1.0615388887961e-15
   8    -2.1663166054938e-15
   9      0.60469374104911
  10    -1.9319033062814e-14
  11    -2.0492686352185e-15
  12      0.46613936294433
  13    -1.0947584522732e-14
  14    -5.8639953332902e-17
  15    9.7039437075949e-16
  16     0.076795586097548
  17    1.3026993149864e-15
  18      0.11596690824662
  19    5.1346332975807e-15
  20    -1.2574032928895e-15
  21    -0.067180449010979
  22    -1.2560197513206e-15
  23    -0.035870283328271
  24    8.3474228875486e-16
  25    7.6567871246777e-16
  26    -2.8582834270576e-14
  27    -5.4040412722652e-14
  28    -6.9550699836838e-16
  29      0.69989668049042
  30    -2.6489884063868e-15
  31    -1.023312104567e-14
  32      -1.6442463998001
  33    -2.0121151701451e-14
  34    -6.9589353723893e-15
  35     0.089780114523646
  36    -1.0769919825599e-14
  37    -1.1866248618865e-15
  38    -1.0460098809873e-15
  39     -0.23651634388974
  40    3.3025523265759e-16
  41      0.42812267628945
  42    -4.2826644532917e-15
  43    -5.6685230007013e-15
  44      0.04181701897698
  45    -1.6147640945736e-15
  46     -0.56883356615963
  47    -7.5256450583667e-16
  48    3.801083525629e-15
  49    7.1215194047647e-15
  50     8.98220709134e-17
  51    0.0071990327421178
  52    -6.343377530971e-16
  53    2.3757972432011e-16
  54      0.68811901875956
  55    9.0670107554169e-16
 Sym= A
 Ene=              15
 Spin= Alpha
 Occup=    0.00000
   1    4.6066899061674e-15
   2    8.3793894915196e-15
   3    -5.4114946615896e-14
   4    -9.9641949823206e-14
   5    -1.3862634506389e-15
   6     -0.01165343815857
   7    -2.3123450775968e-15
   8    1.1492620196683e-14
   9     -0.18021305572649
  10    4.2592175207157e-14
  11    6.0467025350457e-15
  12      0.27309925273575
  13    2.2671819014133e-14
  14    1.2382622085577e-15
  15    2.4562747160986e-16
  16     -0.18830115491193
  17    1.7574606867003e-15
  18       1.0729937993131
  19    -1.2116178140616e-14
  20    -4.2053171096913e-15
  21      0.15675249886681
  22    -4.5398818173292e-16
  23     -0.42543807952809
  24    -4.8539326402152e-15
  25    -8.6598004541193e-15
  26     9.52113013958e-14
  27    1.1167201300346e-13
  28    7.883148042218e-16
  29    -0.014077900695534
  30    8.3078133821715e-16
  31    2.9310505413871e-14
  32      0.15183870203833
  33    4.1983619240846e-14
  34    1.5402730980219e-14
  35     -0.48778725629392
  36    1.4616744304085e-14
  37    1.0808550683191e-15
  38    8.0488771961302e-17
  39      0.11734329547384
  40    3.5215504419866e-16
  41    -0.082839815709415
  42    8.1446186213035e-15
  43    4.4853413098687e-15
  44     0.088500801674918
  45    4.8190766392485e-15
  46      0.22522143511034
  47    -5.5796758175015e-15
  48    -3.8759223738192e-14
  49    -1.7414972095798e-14
  50    2.3234334116548e-16
  51      0.17148743141605
  52    -3.2055301782452e-15
  53    7.8366132088255e-15
  54     0.083359294654191
  55    -9.5839461320276e-15
 Sym= A
 Ene=              16
 Spin= Alpha
 Occup=    0.00000
   1    -0.0024534734268162
   2     0.012582191724976
   3      0.21616841029555
   4       1.4226371309827
   5    -0.056196689441755
   6      0.14826684034283
   7    0.0075289938807137
   8     -0.16875067641232
   9     -0.50208628774875
  10     -0.12877826050785
  11      0.72124747179012
  12       1.7405697154524
  13     -0.37886524178219
  14    0.0008917447617883
  15    0.0067025943655127
  16     0.031777257463695
  17    0.0047634029281161
  18     -0.17944920252849
  19     0.040714004910541
  20    -0.024650407293925
  21     -0.10339400300517
  22    0.00070647997405311
  23      0.34074154523058
  24    0.0045508810316249
  25     0.022100389680597
  26     -0.12447329771576
  27      -1.6389679377398
  28     0.022477620203708
  29    0.0075191120749557
  30    -0.013608102517273
  31    -0.082718357492986
  32      0.37654913778859
  33     -0.26221079338306
  34     -0.74696857355206
  35      -1.5837782494639
  36     -0.43062963783434
  37     0.014599219721463
  38    -0.00076328147658292
  39    -0.050073223533252
  40     0.023638070162629
  41    -0.064433119497258
  42    -0.059951013078628
  43    -0.087240579145132
  44     -0.21504138058079
  45     0.019746406363036
  46    -0.023769399515239
  47    -0.029790757320454
  48     0.025517901175924
  49      0.23590651183986
  50    -0.001016200769232
  51     -0.16374717150497