[Molden Format]
made by pyscf v[2.13.1]
[Atoms] (AU)
O   1   8     0.21099695469856     0.00000000000000     2.15462460678861
N   2   7    -0.44776862100326     0.00000000000000    -0.03589262653049
H   3   1     1.18163474748449     0.00000000000000    -1.17386889907833
[GTO]
1 0
 s    8 1.00
                 11720  0.00070964594651845
                  1759  0.0054672722921914
                 400.8   0.027823118610189
                 113.7    0.10474773971146
                 37.03    0.28292084635691
                 13.27    0.44849523869833
                 5.025    0.27081688521277
                 1.013    0.01545029160744
 s    8 1.00
                 11720  -0.00031444341168873
                  1759  -0.0024821376810179
                 400.8  -0.012316355381583
                 113.7  -0.050538917343672
                 37.03   -0.13938490331632
                 13.27   -0.32507749481778
                 5.025   -0.22984830758785
                 1.013     1.0953793467883
 s    1 1.00
                0.3023                   1
 s    1 1.00
               0.07896                   1
 p    3 1.00
                  17.7   0.062679166281506
                 3.854    0.33353656587936
                 1.046    0.74123964163973
 p    1 1.00
                0.2753                   1
 p    1 1.00
               0.06856                   1
 d    1 1.00
                 1.185                   1
 d    1 1.00
                 0.332                   1

2 0
 s    8 1.00
                  9046  0.00069961741342552
                  1357  0.0053860546299287
                 309.3   0.027391021189057
                 87.73    0.10315059198201
                 28.56    0.27857066331743
                 10.21    0.44829484945412
                 3.838    0.27808592839527
                0.7466   0.015431561233271
 s    8 1.00
                  9046  -0.00030499009595337
                  1357  -0.0024080263785077
                 309.3   -0.01194444872518
                 87.73  -0.048925992909017
                 28.56   -0.13447272472496
                 10.21   -0.31511257770011
                 3.838   -0.24285783254964
                0.7466     1.0943822068542
 s    1 1.00
                0.2248                   1
 s    1 1.00
               0.06124                   1
 p    3 1.00
                 13.55   0.058905676772132
                 2.917    0.32046110671427
                0.7973    0.75304206179207
 p    1 1.00
                0.2185                   1
 p    1 1.00
               0.05611                   1
 d    1 1.00
                 0.817                   1
 d    1 1.00
                  0.23                   1

3 0
 s    3 1.00
                 13.01   0.033498726389998
                 1.962    0.23480080117413
                0.4446     0.8136829578829
 s    1 1.00
                 0.122                   1
 s    1 1.00
               0.02974                   1
 p    1 1.00
                 0.727                   1
 p    1 1.00
                 0.141                   1

[5d]
[7f]
[9g]

[MO]
 Sym= A
 Ene=               0
 Spin= Alpha
 Occup=    1.00000
   1    -0.00091764871621283
   2    -0.010293637882779
   3    -0.029939531647974
   4    -0.028381711847369
   5      0.47762386541447
   6    -9.9946526802146e-15
   7    -0.076426021442704
   8      0.38077727823235
   9    -7.0988513444231e-15
  10    -0.054452432470222
  11     0.086400220281393
  12    1.9326686038563e-16
  13    -0.0092459325814567
  14    -0.0031227904166629
  15    -0.00024768134807462
  16    6.5523995992261e-16
  17    -0.00019904544559959
  18    1.8209505797568e-16
  19    -0.00044945429816363
  20    -0.010941007057888
  21    6.5664477967621e-16
  22    -0.0039089761847796
  23    4.4677884778045e-17
  24    0.0024736590972104
  25      0.12621122948098
  26       0.2887727335117
  27      0.13078721820108
  28     -0.41002914095362
  29    -7.8449086997833e-15
  30    -0.036724120526668
  31     -0.28738049137274
  32    -4.7915096462183e-15
  33    -0.003281145295887
  34    -0.051709312624363
  35    -1.4776167180828e-15
  36    -0.0032166399626076
  37    -0.009436179440732
  38     0.023442466094655
  39    -8.4928651034274e-16
  40    -0.011242650681625
  41    -3.2883413412109e-16
  42     0.012776612102135
  43    0.0012345780780658
  44    -1.5423421100107e-16
  45    -0.0074204987358633
  46    -5.0638692625991e-16
  47     -0.27688526616281
  48     -0.14071176350085
  49     -0.02383613914281
  50     0.011619433818078
  51    -1.7412088716195e-16
  52    -0.015491298409491
  53    -0.0077244830045225
  54    1.7066398830459e-16
  55     0.019163188456811
 Sym= A
 Ene=               1
 Spin= Alpha
 Occup=    1.00000
   1    0.0010704733941801
   2       0.0136516278569
   3     0.026022533733863
   4    0.0094697790816293
   5     -0.37844872392489
   6    -1.297845238902e-12
   7      0.30367268621697
   8     -0.24106378831411
   9    -9.2728824991314e-13
  10      0.19912999650063
  11    -0.016433878198573
  12    -8.5920055228039e-14
  13     0.011043287937173
  14    -0.015472243848938
  15     0.011393269961097
  16    7.5537096969772e-14
  17    0.0040722520469095
  18    1.9990061091494e-14
  19    -0.018053635356998
  20     0.013341905074543
  21    1.0886667864513e-13
  22     0.001625712935873
  23    2.5380896034533e-14
  24    0.0016903767698908
  25      0.13119332842856
  26      0.23174456252755
  27    0.0099111787717065
  28     -0.35417162721578
  29    -1.0288002698134e-12
  30     -0.15478014050667
  31     -0.16217565620986
  32    -6.1382028564194e-13
  33    -0.067738077209519
  34    -0.012487583282777
  35    -4.8598421894145e-14
  36    0.00045305051879661
  37    0.0050202322739953
  38    -0.030720173544862
  39    -1.05412152418e-13
  40    -0.016322200747457
  41    -5.4754779580386e-14
  42    0.0004964176777561
  43     0.007735282026614
  44    5.9347433153403e-15
  45    -0.0028431174659495
  46    -3.704601686865e-14
  47    -0.048768352485196
  48     0.022496179478836
  49    0.0049563029262792
  50     0.000135030649661
  51    -2.7748292980063e-14
  52    -0.0090032935964843
  53    -0.0073161119155099
  54    7.9750820644668e-15
  55    0.0033215684504458
 Sym= A
 Ene=               2
 Spin= Alpha
 Occup=    1.00000
   1    4.3929374211321e-15
   2    7.7269562564075e-14
   3    1.5880274813683e-13
   4    3.2433502011649e-14
   5    -8.5891137294858e-13
   6      0.46121976843488
   7    1.1477472399884e-12
   8    -5.495242454629e-13
   9      0.32974340462069
  10    7.3253139544965e-13
  11    -4.452047715983e-14
  12     0.030802567338183
  13    3.9027755944539e-14
  14    -5.6864863816285e-14
  15    1.8225787779274e-14
  16    -0.026824120160976
  17    9.6489720656827e-15
  18    -0.0071124454579522
  19    -6.2261204127043e-14
  20    2.195143199017e-14
  21    -0.038877470563028
  22    2.9754081869013e-15
  23    -0.0090210235614491
  24    1.9484471404752e-15
  25    2.9174459409614e-13
  26    6.5941386364322e-13
  27    5.954383019016e-14
  28    -9.3953568651086e-13
  29      0.36554341648903
  30    -7.3289010145777e-13
  31    -4.3654604717931e-13
  32      0.21781160050653
  33    -2.6748995178629e-13
  34    -2.8424591044429e-14
  35     0.017054177082774
  36    4.1846448423888e-15
  37    -1.0948358016296e-14
  38    -1.034860706803e-13
  39     0.037460083469865
  40    -3.9854345263508e-14
  41     0.019463655437898
  42    1.2750166719836e-14
  43    1.8803040904637e-14
  44    -0.0022756620392066
  45    -1.1716659823688e-14
  46     0.013052508618961
  47    7.8813745454403e-15
  48    1.0680572167865e-13
  49    1.0019705993569e-14
  50    -1.1365906910592e-14
  51    0.0098714669262827
  52    -2.1217601015972e-14
  53    -2.6086065348589e-14
  54    -0.0027623694064091
  55    1.941691007768e-14
 Sym= A
 Ene=               3
 Spin= Alpha
 Occup=    1.00000
   1    0.0018885177211015
   2    -0.045715133482306
   3    -0.031378587853047
   4     0.024599610112124
   5      0.23308416171836
   6    -2.9418370574529e-13
   7       0.2640236971629
   8       0.1489263071825
   9    -2.1082363789722e-13
  10      0.16297433051422
  11    -0.0023381911780784
  12    -1.999474020128e-14
  13     0.003702148711121
  14    -0.0090123661353194
  15    -0.015128430765331
  16    1.7059701377058e-14
  17    -0.0029876567435987
  18    4.5005429503108e-15
  19    -0.0065890876195204
  20    -0.018920763362195
  21    2.5117911059063e-14
  22    -0.0019641131224878
  23    5.8532098071365e-15
  24    -0.00011107380833171
  25      0.10530357603991
  26      0.18626861815304
  27     0.013596144287724
  28      0.12726787714176
  29    -2.3358392748434e-13
  30     -0.42377356146903
  31     0.031276043974537
  32    -1.384551298675e-13
  33     -0.11843059273064
  34    0.0056809743040506
  35    -1.114468620519e-14
  36    -0.0057249295263326
  37    -0.032517830781537
  38    -0.025439612712235
  39    -2.3922807042284e-14
  40     0.012454025917332
  41    -1.2389510864216e-14
  42     0.017646128762903
  43    0.00083642686657889
  44    1.7449211015744e-15
  45    -0.011138598268744
  46    -8.2494141115022e-15
  47      0.31874445266563
  48     0.059477608594849
  49    2.2112364273994e-05
  50    -0.030397835009659
  51    -6.3166358053138e-15
  52     0.015619074690583
  53    0.0013355607296488
  54    1.8280601114215e-15
  55    0.0080056681552123
 Sym= A
 Ene=               4
 Spin= Alpha
 Occup=    1.00000
   1    0.0045529863646388
   2      0.27996257585511
   3      0.43283187001772
   4     0.087744788631696
   5      0.12770066462629
   6    -1.6709909797821e-13
   7      0.32838292813433
   8     0.065170759927387
   9    -1.1783972575568e-13
  10      0.15042315666694
  11    -0.0018229787658343
  12    -1.1559246646086e-14
  13    -0.0042570410298933
  14    -0.017210542213253
  15    -0.010046277981049
  16    9.802429251143e-15
  17    0.00025718586480425
  18    2.6366356281548e-15
  19    -0.011650018764414
  20    -0.0065535806977375
  21    1.3328590493574e-14
  22    0.00011791664877678
  23    2.950008848127e-15
  24    -0.0032668420857593
  25     -0.34437714363588
  26      -0.3309862014028
  27    -0.048216401084607
  28    -0.023822548177642
  29    -1.3248445380494e-13
  30    -0.046586195926796
  31    0.0059559338523377
  32    -8.0234186726782e-14
  33    -0.047637249899442
  34    -0.0024939714904895
  35    -5.8403737609101e-15
  36    -0.0098377361204607
  37    -0.0072032088856609
  38    -0.00026263827730568
  39    -1.3582691460079e-14
  40    -0.0035281369805029
  41    -7.0708042458073e-15
  42    -0.011131032783514
  43     -0.01868697278649
  44    -2.0478426006858e-16
  45    0.0054863605754219
  46    -5.0945930610402e-15
  47     -0.12561648480269
  48     0.015067557094701
  49     0.002662418313368
  50     0.017638635685794
  51    -3.5067972172924e-15
  52    -0.011915012257563
  53    -0.0077198951126331
  54    9.7395423672379e-16
  55    0.0089454068795528
 Sym= A
 Ene=               5
 Spin= Alpha
 Occup=    1.00000
   1    -0.0066243704950341
   2       0.3902185175907
   3       0.4486150375017
   4     0.040508265644394
   5    -0.0090190160112319
   6    4.0454766348982e-14
   7    -0.085293797324634
   8    -0.0049765850314347
   9    2.8307807009529e-14
  10    -0.064242482337539
  11    0.0010424229881163
  12    2.8592019783492e-15
  13    0.0031646951658521
  14     0.013978725380775
  15    0.0059864365636617
  16    -2.3316018792632e-15
  17    0.00035001872847727
  18    -6.3595548744545e-16
  19       0.0145647687281
  20    0.0037599353416294
  21    -3.3379486832783e-15
  22    0.0016545260539302
  23    -6.6013749368442e-16
  24    -0.012026338892469
  25      0.25723737268374
  26     0.090093601973538
  27    -0.0097924711969764
  28     0.072562638186349
  29    3.1958079246614e-14
  30      0.10689757812002
  31    -0.0067131639148591
  32    1.9440341639608e-14
  33    -0.036266951863846
  34    0.0017773377093835
  35    1.3827837069412e-15
  36    -0.0090410277747895
  37     0.020713929604009
  38     0.015053544133528
  39    3.3127212516948e-15
  40    0.0028584883570645
  41    1.6425440908702e-15
  42    -0.012356461374861
  43    -0.0018995123634819
  44    8.9332215658953e-17
  45    -0.0083649116698859
  46    1.3242200403133e-15
  47     0.093875061915733
  48    -0.019527113276702
  49    -0.00059430154918015
  50    -0.014625010369087
  51    8.960220259993e-16
  52     0.011765325492612
  53     0.010740371608126
  54    -4.4012249376464e-16
  55    -0.0082623950786726
 Sym= A
 Ene=               6
 Spin= Alpha
 Occup=    1.00000
   1    -0.032178411997368
   2    0.0035607063697401
   3     0.001696695574339
   4    -0.0013079511091772
   5    -0.0014240701285733
   6    1.1971319049235e-15
   7    -0.0014569313750282
   8    -0.00017770743003836
   9    -1.867093705829e-15
  10    0.0011463560259206
  11    4.2465511052468e-05
  12    -1.9006750439053e-15
  13    0.00039615472732009
  14    -0.00014755440294735
  15    1.5945339254484e-05
  16    -8.3462438599404e-16
  17    -3.6089103173766e-05
  18    -2.678803418101e-16
  19    -0.00093942677272135
  20    -0.00053257429515591
  21    2.8382652027483e-15
  22    -0.00015580702685101
  23    6.836343583357e-16
  24       1.0011601754835
  25    0.0047233042065518
  26    -0.0050017856376982
  27    -0.001752537361195
  28    0.0019906695745768
  29    9.877037788483e-16
  30    0.0034732898717422
  31    -0.0025788044628626
  32    4.142592743113e-15
  33    0.0015839241256347
  34    -0.00064651686026744
  35    1.592606243004e-15
  36    0.00053287312778715
  37    0.00089559006842471
  38    0.00026609759287983
  39    2.5190920749806e-16
  40    0.0005207830770875
  41    9.8516190650551e-17
  42    -0.00042640036627479
  43    8.5051610650681e-05
  44    2.4034224118858e-15
  45    -0.00037878876858935
  46    1.1446235016055e-15
  47    1.4601226787444e-05
  48    0.0056242736036615
  49    0.00060714972824702
  50    0.00046429986512859
  51    -9.4593758556075e-17
  52    -0.00027886071367459
  53    -0.0018564886450093
  54    -3.9865380977216e-16
  55    0.0014557231515792
 Sym= A
 Ene=               7
 Spin= Alpha
 Occup=    1.00000
   1       1.0015814230737
   2    0.0012604310178738
   3    -0.018652260824553
   4    -0.0053735431604545
   5    -0.00079658766902642
   6    1.3535567409661e-15
   7    -0.002353906186005
   8    0.0018937155318538
   9    7.190776092871e-16
  10    0.0078390754290824
  11    0.00031612922587128
  12    -8.6364676244393e-17
  13    0.00079640261164217
  14    0.00027234011405427
  15    6.1461778507878e-05
  16    -9.4535206878858e-17
  17    0.00030425444244348
  18    -5.3984196946444e-17
  19    -0.0018515884665307
  20    -0.0008813655925797
  21    9.5608713247553e-17
  22    -0.00013433305815042
  23    6.8211281514458e-18
  24     0.032306830054117
  25    -0.00019628334516638
  26     0.011545390543395
  27    0.0034433819598665
  28    0.00012939255625243
  29    1.0521101389121e-15
  30    0.00025652255710819
  31    0.0023606882204197
  32    8.7523002539669e-16
  33    0.0088230952030604
  34    5.7270252327863e-05
  35    1.2141827906589e-16
  36    0.0011205509391878
  37    -0.00025806513488088
  38    -0.00025790629922716
  39    1.0559014892387e-16
  40    1.6657602965788e-05
  41    5.4642832540162e-17
  42    0.0021967245616766
  43    0.0016127722266432
  44    1.6692621360778e-16
  45    0.00029063421600931
  46    1.1897443856966e-16
  47    -0.00023879556906049
  48    0.0017750863871649
  49    -0.00013548143875155
  50    0.00014154236071845
  51    2.2255937173666e-17
  52    -0.0002553861128509
  53    -0.00072786173962073
  54    -3.0558138029431e-17
  55    0.0001954632052404
 Sym= A
 Ene=               8
 Spin= Alpha
 Occup=    0.00000
   1    0.0043565451639239
   2    0.0029748035072022
   3     -0.16352053503168
   4      -1.0624256260624
   5      0.02635393258589
   6    3.6732390149239e-14
   7    -0.027970636703303
   8     0.083753865092235
   9    5.5391103870346e-14
  10     0.033003935652925
  11    -0.023332700721523
  12    -7.4442040523617e-13
  13    -0.044630636433856
  14     -0.01328546704046
  15    -0.002567483343923
  16    2.2071149868631e-15
  17    0.00032595653822823
  18    6.5638056374064e-16
  19    -0.024717515595433
  20    -0.016287430358263
  21    3.2264775686651e-14
  22    0.0081646534975634
  23    1.299529093882e-14
  24    -0.037907692748661
  25     -0.21195046949976
  26     -0.11690690092561
  27       3.8411295707596
  28     -0.13336271180547
  29    -1.7442668728661e-13
  30     0.093885205186605
  31      0.14160291398931
  32    -2.0302272848069e-13
  33     0.098490978149324
  34       0.4153600800116
  35     1.24292362824e-12
  36     0.088173649224333
  37    -0.009885715941844
  38    -0.0053099568199298
  39    -1.0221286057409e-14
  40     0.009874900288892
  41    -6.8104389542624e-15
  42      0.07641931856689
  43    -0.038647133572276
  44    1.6641711160766e-14
  45     0.028864929749628
  46    3.6743264113326e-14
  47     0.097122593203544
  48     -0.63421316062309
  49      -2.1845898917593
  50     0.027657207664928
  51    3.4773614313896e-15
  52     -0.01372601868924
  53      0.50882652557346
  54    8.6417799305826e-14
  55     -0.18667728337311
 Sym= A
 Ene=               9
 Spin= Alpha
 Occup=    0.00000
   1     0.014609166086929
   2     0.025702759343907
   3     -0.44365836242281
   4       1.4106644171649
   5     -0.01998595401879
   6    9.0586926962908e-13
   7      0.13942369037573
   8     0.044464362691622
   9    7.6404024036464e-13
  10      0.18590221779863
  11      -0.4392737427303
  12    1.1039932141729e-12
  13     -0.79591191070785
  14    -0.017957057168854
  15    -0.0040195390618871
  16    4.8584101434294e-14
  17    -0.0063571945972578
  18    -2.715990610718e-15
  19    -0.098261477046023
  20     -0.03400092828304
  21    -4.5287300364417e-14
  22     0.029308723460756
  23    7.6026271089556e-14
  24     0.062392305549698
  25      0.27483725453418
  26      0.58053866324278
  27      -1.0258046154482
  28      0.18655655471271
  29    -1.247424830458e-12
  30      -0.2846938607356
  31      0.27413169174465
  32    -1.2591884194375e-12
  33      0.11227442371853
  34      0.23460599484989
  35    -5.2410898222301e-13
  36     -0.38212672934633
  37    -0.014442324148661
  38    -0.014775517099414
  39    -7.5657554501507e-14
  40    -0.020021169443818
  41    -6.6187487858242e-14
  42      0.15014922557637
  43      0.06913445756885
  44    1.5609298339628e-14
  45    -0.0023702466295314
  46    2.6119142321198e-13
  47     -0.21490811470911
  48     -0.84459110522623
  49     -0.63511740543555
  50    -0.0018767613974653
  51    -1.6929709372855e-14
  52     0.033549732876128
  53       0.2276154666206
  54    2.3550918072917e-13
  55     0.099573865883285
 Sym= A
 Ene=              10
 Spin= Alpha
 Occup=    0.00000
   1    4.4703838899851e-14
   2    -1.6573412841137e-13
   3    -2.6856025995405e-12
   4    -8.6042927932141e-13
   5    -2.9749111380042e-14
   6     -0.32924313460759
   7    5.573674011445e-13
   8    3.0019193722733e-13
   9     -0.33743855258727
  10    1.3770977410495e-12
  11    -2.9592412063315e-13
  12     -0.43957616023422
  13    -1.8604339484948e-13
  14    -5.8789872495481e-14
  15    -1.6093319202303e-14
  16    -0.018874145551948
  17    -1.5038513210815e-14
  18    0.0033660266329879
  19    -6.6426949889656e-13
  20    -1.5684745294695e-13
  21    -0.020042980044344
  22    1.0357632926337e-13
  23    -0.034677771700303
  24    1.6370961979503e-13
  25    8.576527597786e-13
  26    4.2286761171132e-12
  27    4.9625011322088e-12
  28    1.0094731536363e-12
  29      0.59230303141465
  30    -6.0969534918117e-13
  31    1.5602570893258e-12
  32      0.47862810983626
  33    1.3884589324513e-12
  34    8.1888862940231e-13
  35       0.1014571107892
  36    6.6703783426895e-15
  37    -1.0416690094889e-13
  38    -1.8341379486851e-14
  39     0.024642635947768
  40    -2.8615963825013e-14
  41     0.020442410501271
  42    6.1892540278766e-13
  43    3.7929434063884e-13
  44    0.0089720611451726
  45    -1.2757782470862e-13
  46     -0.07366092072686
  47    -8.8084069191721e-13
  48    -4.2852658200091e-12
  49    -3.0824434181589e-12
  50    6.5674586841142e-14
  51    -0.0060914056058546
  52    9.2046385355814e-14
  53    1.7744214641622e-12
  54      -0.1250039054491
  55    -2.2708530931347e-13
 Sym= A
 Ene=              11
 Spin= Alpha
 Occup=    0.00000
   1     -0.01140893466012
   2     -0.15326454639128
   3     -0.33891152377826
   4      -1.9817966197461
   5     0.036171874576021
   6    -5.1713586404424e-13
   7      0.42879850311473
   8     -0.14895510101273
   9    -2.2431989721628e-13
  10      0.43582326878849
  11      0.41980831774644
  12    1.1884101549991e-12
  13      0.89477920753987
  14     0.028573779624198
  15     0.014269380431321
  16    6.1650187275599e-14
  17    0.0039151224175658
  18    6.6597240566993e-14
  19      0.11478017463597
  20     0.070888634798418
  21    -1.354131475542e-13
  22    -0.012867616450963
  23    -8.7186003754021e-14
  24     0.016487131522741
  25       0.2182107601409
  26      0.52228688799028
  27        1.450359548046
  28     0.074516656919774
  29    -4.0583877370339e-13
  30      0.38268492902983
  31      0.11681541530285
  32    -6.834821186939e-13
  33      0.46540969209527
  34     0.021280191138987
  35    9.828206774347e-13
  36      0.53969595259745
  37     -0.12598801956997
  38     0.040589271676372
  39    4.1265998620087e-14
  40    0.0045113326987624
  41    -2.0629525590114e-14
  42     -0.17566085863377
  43      0.23253119931129
  44    -4.0095708008964e-13
  45    -0.078819273046081
  46    2.4489062085535e-13
  47     -0.29771954588707
  48       1.1890158503873
  49     -0.46672860993922
  50      0.13893564484393
  51    -7.0427640431195e-14
  52    0.0088241641293351
  53     0.032735286748325
  54    1.0561503178937e-12
  55      0.17251683509421
 Sym= A
 Ene=              12
 Spin= Alpha
 Occup=    0.00000
   1    0.0078801930165939
   2     0.020422583540785
   3      -0.7415467982311
   4       1.0984572273283
   5     -0.24841265324631
   6    3.9123410264031e-13
   7     -0.31929790836956
   8       0.1397187566958
   9    3.8509236732604e-13
  10      0.33958071041403
  11     -0.38384040401443
  12    -4.5068572508544e-13
  13      0.17304535080648
  14    -0.031021635549098
  15    -0.012508770800609
  16    -4.8889848825294e-14
  17     0.012925365734182
  18    1.2745160535909e-14
  19     -0.11517588988077
  20     -0.13325586129176
  21    -6.1726515007101e-14
  22    -0.0059949257727855
  23    -3.061991218217e-14
  24      0.10897145563935
  25      0.18962351114539
  26      -0.1596082527093
  27      -1.9510388046607
  28     -0.28678639467181
  29    5.9900398412652e-13
  30     -0.34153552654463
  31     -0.22967098160136
  32    -4.1612962829712e-13
  33      0.51844265485254
  34      0.10489304159995
  35    -2.2617501681626e-12
  36     -0.67555413852785
  37     0.040662578562447
  38    0.0085789893422905
  39    -1.1920102454055e-14
  40    -0.020620043773608
  41    -5.3921764563374e-14
  42       0.3676202050446
  43      0.33902618878587
  44    4.9922461628046e-13
  45     -0.13806787252674
  46    -3.9752683560191e-13
  47      -0.1930249354317
  48       1.8749432744149
  49     0.025761755407921
  50      0.16118020465774
  51    -1.5128267313498e-13
  52    -0.077174029984632
  53      0.10424859744316
  54    8.3185151775062e-13
  55      0.69204470180078
 Sym= A
 Ene=              13
 Spin= Alpha
 Occup=    0.00000
   1     -0.13433362344122
   2      -0.4542973491238
   3     -0.75377723830362
   4      0.42769017068225
   5     -0.46045344492545
   6    9.3351287509104e-14
   7      0.14210517467226
   8       0.8459406960964
   9    1.4484225251449e-13
  10      0.43252390807037
  11     -0.38911651057832
  12    -9.4176317765162e-13
  13     0.043805205817165
  14     -0.10763170117256
  15     0.045478964113483
  16    -3.0243510849383e-13
  17    0.0092981295744712
  18    -4.4064788343792e-14
  19     -0.10050393866004
  20     -0.48228892512234
  21    1.0957060868265e-13
  22     -0.22895174095824
  23    5.2297084326169e-13
  24     0.023544653820882
  25     0.027748337228473
  26      0.24576083077458
  27    -0.026154937773584
  28     -0.11419168698416
  29    -8.3760878207794e-13
  30      0.32942849005983
  31     -0.13657166466725
  32    1.2491344985644e-12
  33      0.84751942365992
  34      0.17283356219063
  35    6.0022998554729e-13
  36      -0.5345584832757
  37      0.11288985973791
  38      -0.2809202964812
  39    7.5168539692393e-15
  40    -0.017884684315476
  41    -1.1683714233966e-13
  42      0.21284207282327
  43      0.30916232332015
  44    4.5014828717132e-13
  45      0.16045496569203
  46    1.8692485730767e-13
  47      0.21018915041332
  48     -0.01688287937186
  49      0.11039124928065
  50      -0.2616255189904
  51    -1.2212493396205e-13
  52     0.049924728055785
  53     -0.29088439193797
  54    -1.2198624273946e-12
  55      0.42284071066548
 Sym= A
 Ene=              14
 Spin= Alpha
 Occup=    0.00000
   1     -0.50509070274433
   2     -0.88686703088919
   3       4.6729307378108
   4       2.2818748971438
   5    -0.079755316476703
   6    5.7637006927649e-13
   7     -0.03058218438849
   8      -1.0109385687893
   9    -2.2442231789744e-13
  10      -3.3050595679853
  11      0.13267428288427
  12    1.6933226953514e-12
  13     -0.27470534205059
  14      0.21264213235702
  15      0.12093365938448
  16    -7.9572955536111e-13
  17    -0.0036263673667773
  18    8.7101951935517e-13
  19       1.0616980254963
  20      0.49146974820882
  21    6.2426543225743e-13
  22     0.022240727110624
  23    -3.0757866264347e-13
  24      0.29974528676723
  25      0.59909570767541
  26      -6.3819197347311
  27     -0.87876335057179
  28    -0.089312964791336
  29    1.8704561577722e-12
  30      -1.2038903848817
  31     -0.90228484205112
  32    -3.7183603032447e-12
  33      -2.1137627660029
  34     -0.34748118474374
  35    -1.6066072062819e-12
  36     -0.16938242721773
  37     -0.38948489702004
  38     -0.36962053745497
  39    3.1842754110597e-14
  40      0.21567893076774
  41    5.9707102681694e-13
  42     -0.81299583220919
  43     -0.24278517474916
  44    1.1892986015992e-13
  45    0.0092866524939539
  46    -6.2851379700984e-13
  47     -0.28916999434984
  48      0.93807074123428
  49     -0.20204005709346
  50     0.025864555438501
  51    -6.1145555887683e-13
  52    -0.085197735252612
  53     -0.38673141359603
  54    3.3393602448326e-12
  55    -0.088728746574728
 Sym= A
 Ene=              15
 Spin= Alpha
 Occup=    0.00000
   1     -0.46361825812717
   2       -1.093958692335
   3       1.5179916195195
   4       2.9819941518721
   5      0.40396914065395
   6    -4.8566918334368e-12
   7     0.057077987385682
   8      -1.2178201789272
   9    1.1126163136515e-11
  10      -0.6683173009921
  11     -0.18370821671271
  12    -3.0277845410338e-11
  13      -0.7027268916196
  14      0.44479108857215
  15      0.19136068021658
  16    -2.3280419579603e-11
  17    -0.058695021287987
  18    -8.0188634596786e-12
  19     -0.24852901557747
  20      0.67203531491375
  21    1.2433339763722e-11
  22      0.31093550207085
  23    5.0720909316245e-12
  24     -0.24385420881328
  25     -0.54328567657652
  26      -0.5027242289416
  27      -2.0127508873911
  28     0.090843366834967
  29    -8.2269043901016e-12
  30     -0.16528362559475
  31      0.47392632450098
  32    1.4148692972502e-11
  33      -1.0509026767132
  34     0.065637152519358
  35    6.9240563470602e-12
  36     -0.80333576998457
  37    -0.046588379557891
  38      0.29543084834892
  39    -1.5987807728456e-11
  40     0.013813055389745
  41    4.3034704656066e-12
  42     -0.16613561661235
  43       0.1165434555511
  44    1.440537215112e-11
  45      0.16487862257486
  46    -1.3622399087656e-12
  47     -0.09323423840373
  48     -0.82943556134983
  49     0.055220133818382
  50     -0.21774968041763
  51    -8.0224676599167e-12
  52      0.04068254549886
  53      0.34162153262262
  54    2.6259683619082e-12
  55      -0.1198556907368
 Sym= A
 Ene=              16
 Spin= Alpha
 Occup=    0.00000
   1    -9.3529619549517e-06
   2    -5.8355171243434e-05
   3    -0.00010221326530277
   4    -0.0023061925332304
   5    0.00021735896593981
   6      -0.2426953017656
   7    -9.7853503786495e-05
   8    0.00049297380180059
   9     -0.38345846702579
  10    -0.00014656988812396
  11    -0.0027181912202355
  12       2.0445957471486
  13    0.0039276587508002
  14    3.7067787159335e-05
  15    -4.3033272886839e-06
  16     0.015862605487556
  17    -9.7057985705734e-06
  18    0.0042652647753563
  19    -0.00026138488062153
  20    -4.8722297802658e-06
  21    -0.076058698805099
  22    -6.8923307866463e-06
  23    -0.017333935351674
  24    -3.0718209938806e-05
  25    -5.8184988618209e-05
  26    0.00031885087242898
  27    0.0055006316657304
  28    7.0714966990157e-05
  29      0.13898044184353
  30    7.4185643366967e-05
  31    2.9213023258921e-05
  32      0.07190542612901
  33    0.00033572366866213
  34    0.0032384348836226
  35      -1.5873052822911
  36    -0.002315685536648
  37    4.8802109131083e-05
  38    2.032193919489e-05
  39    -0.0035577488045432
  40    -1.5767261320848e-05
  41    0.0072963560527507
  42    -3.8805438987165e-05
  43    -0.00010215550478878
  44     -0.11451216075063
  45    0.00011617678127584
  46    -0.050744080061666
  47    2.0291532060426e-05
  48    -0.00063443278616951
  49    -0.0026280672473271
  50    -0.00011358027970896
  51    0.0043128539885494
  52    2.8462579819776e-06
  53    -0.00033374165613632
  54      0.12952239493114
  55    0.00059010493613476
 Sym= A