[Molden Format]
made by pyscf v[2.13.1]
[Atoms] (AU)
O   1   8     0.21099695469856     0.00000000000000     2.15462460678861
N   2   7    -0.44776862100326     0.00000000000000    -0.03589262653049
H   3   1     1.18163474748449     0.00000000000000    -1.17386889907833
[GTO]
1 0
 s    8 1.00
                 11720  0.00070964594651845
                  1759  0.0054672722921914
                 400.8   0.027823118610189
                 113.7    0.10474773971146
                 37.03    0.28292084635691
                 13.27    0.44849523869833
                 5.025    0.27081688521277
                 1.013    0.01545029160744
 s    8 1.00
                 11720  -0.00031444341168873
                  1759  -0.0024821376810179
                 400.8  -0.012316355381583
                 113.7  -0.050538917343672
                 37.03   -0.13938490331632
                 13.27   -0.32507749481778
                 5.025   -0.22984830758785
                 1.013     1.0953793467883
 s    1 1.00
                0.3023                   1
 s    1 1.00
               0.07896                   1
 p    3 1.00
                  17.7   0.062679166281506
                 3.854    0.33353656587936
                 1.046    0.74123964163973
 p    1 1.00
                0.2753                   1
 p    1 1.00
               0.06856                   1
 d    1 1.00
                 1.185                   1
 d    1 1.00
                 0.332                   1

2 0
 s    8 1.00
                  9046  0.00069961741342552
                  1357  0.0053860546299287
                 309.3   0.027391021189057
                 87.73    0.10315059198201
                 28.56    0.27857066331743
                 10.21    0.44829484945412
                 3.838    0.27808592839527
                0.7466   0.015431561233271
 s    8 1.00
                  9046  -0.00030499009595337
                  1357  -0.0024080263785077
                 309.3   -0.01194444872518
                 87.73  -0.048925992909017
                 28.56   -0.13447272472496
                 10.21   -0.31511257770011
                 3.838   -0.24285783254964
                0.7466     1.0943822068542
 s    1 1.00
                0.2248                   1
 s    1 1.00
               0.06124                   1
 p    3 1.00
                 13.55   0.058905676772132
                 2.917    0.32046110671427
                0.7973    0.75304206179207
 p    1 1.00
                0.2185                   1
 p    1 1.00
               0.05611                   1
 d    1 1.00
                 0.817                   1
 d    1 1.00
                  0.23                   1

3 0
 s    3 1.00
                 13.01   0.033498726389998
                 1.962    0.23480080117413
                0.4446     0.8136829578829
 s    1 1.00
                 0.122                   1
 s    1 1.00
               0.02974                   1
 p    1 1.00
                 0.727                   1
 p    1 1.00
                 0.141                   1

[5d]
[7f]
[9g]

[MO]
 Sym= A
 Ene=               0
 Spin= Alpha
 Occup=    1.00000
   1    -0.00090952407224034
   2    -0.0099779948559725
   3    -0.029395630847934
   4    -0.028270627244685
   5      0.47757304668654
   6    -7.2111324497109e-16
   7    -0.075995438370448
   8      0.38071464518793
   9    -4.6500326829607e-16
  10    -0.054272164421379
  11     0.086395934252138
  12    8.1220713171208e-16
  13    -0.0092574866224439
  14    -0.0031557788696626
  15    -0.00025287298274213
  16    1.1608373131508e-16
  17    -0.0001952504329894
  18    3.9231584514825e-17
  19    -0.00047554550493124
  20    -0.010934513535745
  21    -1.2680581736445e-16
  22    -0.0039075870692337
  23    -1.3744458802534e-16
  24    0.0024905021610859
  25       0.1253500068314
  26      0.28797198773841
  27      0.13069395673332
  28     -0.41029315507118
  29    -4.9472365498734e-16
  30    -0.036479890023074
  31     -0.28742006479445
  32    -4.1520447602887e-16
  33    -0.0032389568856625
  34    -0.051722229525869
  35    -1.1338403660826e-15
  36    -0.0032232077660845
  37    -0.009429011388976
  38     0.023453197417282
  39    -9.6098558221005e-17
  40    -0.011265389514621
  41    6.2495530784739e-17
  42     0.012746724120276
  43    0.0012023456228583
  44    -2.023438538931e-16
  45    -0.0073950077374548
  46    -2.4481941512208e-16
  47     -0.27748846493344
  48     -0.14072737033281
  49    -0.023830190029051
  50     0.011689971805519
  51    2.4489984282438e-17
  52    -0.015536580883173
  53    -0.0077473375962189
  54    1.1515291317188e-16
  55     0.019176949982882
 Sym= A
 Ene=               1
 Spin= Alpha
 Occup=    1.00000
   1    0.0013324896109801
   2       0.0224890730035
   3     0.041864878198449
   4     0.013768552161098
   5     -0.36707346343339
   6    9.5404566108148e-12
   7      0.32504655245213
   8       -0.234597613492
   9    6.8214932884247e-12
  10      0.20993686528789
  11    -0.016574301875789
  12    6.3788706681222e-13
  13     0.010877486449119
  14    -0.016575464138121
  15     0.010535350586934
  16    -5.5480605954291e-13
  17     0.004013769800075
  18    -1.4714462696787e-13
  19    -0.018845607126317
  20     0.012589949434481
  21    -8.0475197689334e-13
  22    0.0015745298848551
  23    -1.8662010283683e-13
  24    0.0017614612477777
  25      0.11459654117502
  26      0.21876299871767
  27    0.0079548446071928
  28     -0.35272255110377
  29    7.5611725651212e-12
  30     -0.16650080973484
  31     -0.16089966509329
  32    4.5045270567649e-12
  33    -0.072035708142002
  34    -0.012475006745681
  35    3.5217407726908e-13
  36    -5.1352487905336e-05
  37    0.0038168320987201
  38    -0.031356327017126
  39    7.7486901400335e-13
  40    -0.016231087102284
  41    4.0262596890728e-13
  42    0.00044124321668902
  43    0.0068739546328157
  44    -4.7585723207212e-14
  45    -0.0027351094867114
  46    2.6966097437289e-13
  47    -0.048802773314669
  48     0.024616603707475
  49    0.0050865425048322
  50    0.00046581967975337
  51    2.0422596135069e-13
  52    -0.0093314337255206
  53    -0.0077371778292648
  54    -5.6936927415868e-14
  55    0.0039754938860521
 Sym= A
 Ene=               2
 Spin= Alpha
 Occup=    1.00000
   1    -2.6815606168819e-14
   2    -4.6852245191648e-13
   3    -8.8641499038151e-13
   4    -3.262705623225e-13
   5    7.5734462696857e-12
   6      0.46121976843488
   7    -6.7490263319612e-12
   8    4.8422893662491e-12
   9      0.32974340462069
  10    -4.347655541587e-12
  11    3.4523408849792e-13
  12     0.030802567338183
  13    -2.1753912488016e-13
  14    3.4378009555179e-13
  15    -2.1663211008005e-13
  16    -0.026824120160976
  17    -8.2776197669775e-14
  18    -0.0071124454579522
  19    3.887259108209e-13
  20    -2.5952884464769e-13
  21    -0.038877470563028
  22    -3.2601273740573e-14
  23    -0.0090210235614491
  24    -3.6673638138488e-14
  25    -2.3696664982177e-12
  26    -4.5193814168112e-12
  27    -1.2733445121495e-13
  28    7.2859400679366e-12
  29      0.36554341648903
  30    3.4740784488193e-12
  31    3.3284302083708e-12
  32      0.21781160050653
  33    1.5122171298444e-12
  34    2.6286655922528e-13
  35     0.017054177082774
  36    1.1119970158918e-14
  37    -7.6265263479961e-14
  38    6.5040863887362e-13
  39     0.037460083469865
  40    3.3479980114647e-13
  41     0.019463655437898
  42    -7.2669611331844e-15
  43    -1.386919512608e-13
  44    -0.0022756620392066
  45    5.8051300187948e-14
  46     0.013052508618961
  47    9.9104267091906e-13
  48    -5.1235869698663e-13
  49    -1.0974437450494e-13
  50    -8.1639733665326e-15
  51    0.0098714669262827
  52    1.9198110341972e-13
  53    1.5762968356115e-13
  54    -0.0027623694064091
  55    -8.2361211956967e-14
 Sym= A
 Ene=               3
 Spin= Alpha
 Occup=    1.00000
   1     0.003028473241163
   2    -0.0069766835405928
   3     0.033438719134552
   4     0.038909311805156
   5      0.26463273002679
   6    3.3612740703176e-14
   7      0.31526641552475
   8      0.16596905116665
   9    2.3853679628651e-14
  10      0.18479525934109
  11    -0.0021376978090636
  12    1.8004332037779e-15
  13    0.0023721397564432
  14    -0.012167307660413
  15    -0.017303305317567
  16    -1.9901218025265e-15
  17    -0.0030156078318744
  18    -5.4117476985805e-16
  19    -0.0086820528827418
  20    -0.020341675809493
  21    -2.6495561535289e-15
  22    -0.0020170403008311
  23    -6.2531890315795e-16
  24    -0.00038104337975862
  25     0.024550596292477
  26      0.10991648623581
  27    0.0043610415519174
  28      0.12783298385049
  29    2.6222167374449e-14
  30     -0.42389524634445
  31     0.036695586103537
  32    1.6101998806834e-14
  33     -0.12178964209684
  34    0.0053718537180721
  35    1.0667737553674e-15
  36    -0.0071511005125502
  37    -0.034192016107105
  38    -0.024641739291025
  39    2.698174088869e-15
  40     0.011916016273545
  41    1.4415715198354e-15
  42      0.01565870307889
  43    -0.0028743947760071
  44    -7.0179239258916e-17
  45    -0.0094896816133371
  46    9.5896706060383e-16
  47      0.28656152333926
  48     0.061169045815179
  49    0.00038661496546394
  50    -0.025918068193748
  51    7.107649579297e-16
  52     0.012876325567041
  53    -0.00034456110697294
  54    -1.3999373793068e-16
  55    0.0097697909976156
 Sym= A
 Ene=               4
 Spin= Alpha
 Occup=    1.00000
   1    0.0037468757787277
   2      0.28411145055561
   3       0.4310345465027
   4     0.081169380931546
   5     0.095969928305764
   6    4.6983576760139e-15
   7       0.2587193219333
   8     0.045036240655169
   9    5.0206211868621e-15
  10      0.10790202379664
  11    -0.00080885033098773
  12    -4.573610947556e-17
  13    -0.0053204440110021
  14    -0.014449792384122
  15    -0.0074340227280489
  16    -1.8398133894426e-16
  17    0.00064976106555416
  18    -6.0834400154616e-18
  19    -0.0093508772193967
  20    -0.0033560046613032
  21    -1.1749763418424e-15
  22    0.0004341349099561
  23    -4.218212617517e-16
  24    -0.002972193799555
  25     -0.36271578882864
  26     -0.37019374484006
  27    -0.050590896491797
  28    -0.031496017764282
  29    3.7643833311881e-15
  30     0.042054924566807
  31    0.0073108730457747
  32    8.7381066825617e-16
  33    -0.021409467383219
  34    -0.0028905315839857
  35    5.8451644340633e-16
  36    -0.0086033294407114
  37    -0.00099209519027861
  38    0.0059013212385913
  39    3.7671931218617e-16
  40    -0.0051064711300985
  41    1.7367003064021e-16
  42    -0.014368567149882
  43    -0.018825144408496
  44    -1.0664079671726e-15
  45    0.0076077254465513
  46    -2.2526718761956e-16
  47     -0.18096508346522
  48    0.0026993392909934
  49    0.0024409307752295
  50     0.023008934659629
  51    1.7143124125685e-16
  52     -0.01420617885552
  53    -0.0074620915209588
  54    -7.6689948899406e-17
  55    0.0070411247373473
 Sym= A
 Ene=               5
 Spin= Alpha
 Occup=    1.00000
   1    -0.0096250278532251
   2       0.3894351310974
   3      0.44909565427756
   4     0.041838007030606
   5    -0.0023273138518865
   6    2.3395438486742e-15
   7    -0.071534224611127
   8    -0.00072049428033411
   9    1.0451405979001e-15
  10     -0.05588994360273
  11    0.00087024957644977
  12    3.0125475546789e-16
  13    0.0033647088997619
  14     0.013431243575839
  15    0.0054565370144488
  16    -1.1762729440757e-16
  17    0.00026842158198878
  18    -4.9935033029864e-17
  19     0.014117440586432
  20    0.0031123686668257
  21    -1.1434598854074e-16
  22    0.0015896304868236
  23    8.910983328031e-17
  24    -0.0098341284464579
  25      0.26074926288648
  26     0.097693821189238
  27    -0.0093199651404367
  28     0.074194095168732
  29    1.732038002451e-15
  30     0.089325746530043
  31    -0.0069684259673372
  32    1.4529124169894e-15
  33    -0.041481600595413
  34    0.0018485383328597
  35    -3.739960540529e-17
  36    -0.0092919877639033
  37     0.019472115734075
  38     0.013851154376159
  39    2.1616985953962e-16
  40    0.0031797230079921
  41    3.5284059099114e-17
  42    -0.011719057993805
  43    -0.0018857489516114
  44    2.8524667474593e-16
  45    -0.008787202268324
  46    2.4646449755729e-16
  47      0.10481636070576
  48    -0.017100547869067
  49    -0.00055648546007996
  50    -0.015685182366604
  51    7.9740439759356e-17
  52     0.012219336696876
  53     0.010686794781049
  54    -2.0845858504483e-16
  55    -0.007875014042752
 Sym= A
 Ene=               6
 Spin= Alpha
 Occup=    1.00000
   1    -0.048784909798264
   2    0.0025309516208455
   3    0.00080877491932378
   4    -0.0013427645554169
   5    -0.0013821118468717
   6    2.231671940224e-16
   7    -0.0013597288115882
   8    -0.00018842924005075
   9    -2.558124899448e-15
  10    0.0010952199079275
  11    3.6112758312813e-05
  12    -1.9628664221866e-15
  13    0.00037577392506144
  14    -0.00017702648774287
  15    2.3272515379944e-06
  16    -7.7769789334002e-16
  17    -4.2682257935729e-05
  18    -2.5226696146968e-16
  19    -0.00093640392118957
  20    -0.00052668947610626
  21    2.9166438107513e-15
  22    -0.00015767759846838
  23    7.018412791899e-16
  24       1.0005120952917
  25    0.0042278516999931
  26    -0.0053185360205691
  27    -0.0017731033071606
  28    0.0018851563706478
  29    2.1638562468561e-16
  30    0.0032406460004782
  31    -0.0025768558023536
  32    3.6780226775971e-15
  33    0.0015426652738288
  34    -0.00064799092467723
  35    1.5554272624307e-15
  36    0.00053840529904824
  37    0.00085219847373053
  38    0.00023808582152512
  39    1.7279509369944e-16
  40    0.00051776164486123
  41    5.7603643319954e-17
  42    -0.00042982899013299
  43    6.8045106038156e-05
  44    2.4047602014682e-15
  45    -0.00036583909262391
  46    1.1153197103433e-15
  47    -0.00013501735425017
  48    0.0056358690103087
  49    0.00060951824670405
  50    0.00048866317891942
  51    -1.1541043003014e-16
  52    -0.00029594976282329
  53    -0.0018654218601932
  54    -3.9194844568422e-16
  55     0.001468044201473
 Sym= A
 Ene=               7
 Spin= Alpha
 Occup=    1.00000
   1       1.0008858784246
   2    0.0025623689674235
   3    -0.017163001333627
   4    -0.0052503459241359
   5    -0.00084070174018452
   6    -1.4159033641148e-16
   7    -0.0025357996988838
   8    0.0018755959392143
   9    -3.963967732258e-16
  10     0.007711549408234
  11    0.00031878891277229
  12    -2.1866115618473e-16
  13    0.00081170118731359
  14    0.00030641697520975
  15    7.8054532967063e-05
  16    -2.0189189536558e-17
  17    0.00030505214411557
  18    -3.5085188060782e-17
  19    -0.0018273430765679
  20    -0.00087927897494538
  21    2.703889769848e-16
  22    -0.00013178259910706
  23    4.8104743972576e-17
  24     0.048890435086541
  25    0.00056441139213669
  26     0.011650794328563
  27    0.0033722581423997
  28    0.00034735434181908
  29    -1.3255516128946e-16
  30    0.00062480175335058
  31    0.0022878134815396
  32    2.290980309241e-16
  33    0.0087266376146898
  34    5.0125724811805e-05
  35    9.1555510125373e-17
  36    0.0010997866261812
  37    -0.00018192183990421
  38    -0.00020948615573916
  39    -1.3197477369016e-17
  40    3.1554211766139e-05
  41    -7.8535838283983e-18
  42    0.0021489773366316
  43    0.0016037375951004
  44    2.148403686424e-16
  45    0.00026090173210342
  46    9.5512432500401e-17
  47    -4.469576674031e-06
  48    0.0018129874383667
  49    -0.00012623110985583
  50    0.00011115362999787
  51    -1.1628808163989e-17
  52    -0.00022901599350785
  53    -0.00072902340013734
  54    -2.8689296406472e-17
  55    0.00019730157144733
 Sym= A
 Ene=               8
 Spin= Alpha
 Occup=    0.00000
   1    0.0047868721477388
   2    0.0048657998293865
   3     -0.16889416804551
   4      -1.0824578811017
   5     0.014681980250654
   6    -1.5538570261027e-15
   7    -0.030931469351222
   8     0.077372897043348
   9    -3.4181391616698e-15
  10     0.033302488329286
  11     0.020522543208347
  12    3.6277505771072e-14
  13    -0.048663612236493
  14    -0.013250748820549
  15    -0.0032096326686242
  16    -7.8114176160306e-16
  17    -4.062020234192e-06
  18    -1.1987980237081e-16
  19    -0.024845170786657
  20    -0.019417155688695
  21    9.3082907989873e-16
  22      0.00723118310637
  23    8.0650595547321e-16
  24    -0.037676646364287
  25     -0.21367474735318
  26     -0.12485311558382
  27         3.90063013461
  28     -0.12737518420289
  29    7.8315112900697e-15
  30     0.085253412816306
  31       0.1543471808386
  32    1.2642730007237e-14
  33      0.09547163835386
  34      0.37751458890247
  35    -7.3003009371705e-14
  36     0.089290378202106
  37    -0.010069260865772
  38    -0.0030045404447522
  39    5.9077095661043e-16
  40     0.010052238479575
  41    6.2741872265508e-16
  42     0.081192056930814
  43    -0.034048124721976
  44    3.6022784139608e-15
  45      0.02675578420386
  46    -9.6533024227077e-16
  47     0.088614264709725
  48     -0.65672270235958
  49      -2.1866389866525
  50     0.027507850943794
  51    -5.6728956012055e-18
  52    -0.013295163588947
  53      0.50822272050087
  54    2.4252134983628e-15
  55     -0.17697897299322
 Sym= A
 Ene=               9
 Spin= Alpha
 Occup=    0.00000
   1     0.012499756046276
   2    0.00012467972897612
   3     -0.49891048643284
   4       1.2884761476612
   5    -0.038964067712745
   6    -7.6273965466033e-12
   7      0.20012334729965
   8     0.066183986378615
   9    -7.7286765058209e-12
  10      0.22560084734035
  11     -0.33137764840277
  12    -8.9329755316963e-12
  13     -0.79958337839034
  14    -0.015971093666328
  15    -0.003937521395665
  16    -3.2452088336318e-13
  17    -0.0073038765441721
  18    4.6680457325175e-14
  19    -0.093024869293165
  20    -0.034570778328341
  21    -2.5737880000608e-13
  22     0.026914461699699
  23    -5.2464293132858e-13
  24     0.059367671507616
  25      0.28247068707774
  26      0.64057046061872
  27     -0.87108082914417
  28      0.21209161854192
  29    1.1464441688989e-11
  30     -0.22512507104709
  31      0.27968686156302
  32    1.0089031249717e-11
  33      0.16551026782273
  34      0.19883398607812
  35    4.620600895288e-12
  36     -0.30199235595427
  37    -0.024259177316666
  38    -0.015491624385206
  39    2.5150336508532e-13
  40    -0.018474024629263
  41    3.3469911468135e-13
  42      0.12856645669313
  43     0.066847610337808
  44    1.2234550895055e-13
  45    0.0023818252386317
  46    -1.0011530189385e-12
  47     -0.21621829232502
  48     -0.87016431220335
  49     -0.64004055508873
  50    -0.0025728644300296
  51    4.861649243642e-14
  52      0.03794757352153
  53      0.20780727074686
  54    -1.3370000792011e-12
  55      0.09321071263265
 Sym= A
 Ene=              10
 Spin= Alpha
 Occup=    0.00000
   1    -2.5773048729907e-13
   2    4.8308035004616e-15
   3    1.0346111054511e-11
   4    -2.6946448972985e-11
   5    8.0339109044542e-13
   6     -0.36782154342835
   7    -4.172863187229e-12
   8    -1.3516008651536e-12
   9     -0.37364422469026
  10    -4.6625837084492e-12
  11    6.9001963899961e-12
  12     -0.43370398875929
  13    1.6767481387352e-11
  14    3.3308128120811e-13
  15    8.1841817134958e-14
  16    -0.015779582472571
  17    1.5184293292811e-13
  18    0.0022442240371316
  19    1.9293419822983e-12
  20    7.241116949711e-13
  21    -0.012489885561489
  22    -5.6182822451842e-13
  23    -0.025589303555799
  24    -1.2341020547749e-12
  25    -5.8540647369066e-12
  26    -1.3248047309723e-11
  27    1.8333112363351e-11
  28    -4.3727397631674e-12
  29      0.55582967372386
  30    4.6492647857437e-12
  31    -5.8070110591955e-12
  32       0.4885707400788
  33    -3.4085268827096e-12
  34    -4.0943072960236e-12
  35      0.21999039486709
  36     6.31878485217e-12
  37    5.0910686346375e-13
  38    3.2027286623761e-13
  39     0.012427551059852
  40    3.8683947261528e-13
  41     0.016319024991587
  42    -2.658364040015e-12
  43    -1.3878135818503e-12
  44       0.0060296733122
  45    -4.2777399454739e-14
  46    -0.048697126347903
  47    4.4817686129831e-12
  48    1.8130445512902e-11
  49    1.3044064355037e-11
  50    4.6096015440822e-14
  51    0.0022563650307394
  52    -7.922902456227e-13
  53    -4.3871526718006e-12
  54    -0.064913001238146
  55    -1.9409129727258e-12
 Sym= A
 Ene=              11
 Spin= Alpha
 Occup=    0.00000
   1    -0.016981046310827
   2     -0.18208047056777
   3     -0.31899589939007
   4      -1.8655999942172
   5      0.13037384042722
   6    3.0615599254043e-15
   7      0.50211469383511
   8     -0.11367931816605
   9    -1.5490469336716e-14
  10      0.42212619426665
  11      0.29597571099202
  12    -6.6312170483595e-14
  13      0.75488812349054
  14     0.027842054330829
  15     0.015901757849128
  16    -3.5327431634049e-15
  17    0.0030653175550299
  18    2.3245345512387e-15
  19      0.11872821262406
  20     0.077535906135491
  21    9.1194686796233e-15
  22    -0.012697725481611
  23    -5.9622712085992e-15
  24    0.0046654531802098
  25      0.18982438802014
  26      0.51737919394737
  27       1.3869016826908
  28     0.063383148285293
  29    -3.8660182831476e-15
  30      0.52876357691331
  31      0.13945615283683
  32    5.8995488249037e-14
  33      0.45972241111576
  34     0.068438961201865
  35    1.1547277516504e-13
  36      0.51573143533015
  37     -0.11349186363248
  38     0.026728918148172
  39    5.9301786834059e-15
  40     0.010346250740367
  41    -4.0220542123649e-15
  42     -0.19005720625433
  43      0.14155698778936
  44    5.3553703390206e-15
  45    -0.037462921143632
  46    1.440990592281e-14
  47     -0.18485265590762
  48      0.89113723085902
  49     -0.28019388879506
  50     0.098847708897644
  51    -1.699229232587e-15
  52     0.019397520668271
  53    -0.0064631753334455
  54    -1.1828079882654e-13
  55     0.091156617665454
 Sym= A
 Ene=              12
 Spin= Alpha
 Occup=    0.00000
   1    -0.013527634308121
   2    -0.066855554563039
   3     -0.76556945984953
   4       1.0640406366408
   5      -0.2551236727319
   6    -2.2031818992016e-15
   7     -0.25606761225713
   8     0.084145845453154
   9    -1.3202228531954e-14
  10      0.38013544285542
  11      -0.2895556833655
  12    -2.8263932214601e-14
  13      0.22345375705118
  14    -0.024761624566416
  15    -0.012922194049914
  16    -7.1496306054764e-15
  17    0.0081860792435892
  18    1.3964022986186e-14
  19    -0.097500775802274
  20     -0.11848555314056
  21    -6.2185753669301e-15
  22    -0.0030132904579025
  23    3.6682541085792e-15
  24     0.076994350848328
  25      0.14673372876786
  26    -0.052911695452724
  27      -1.9010112186838
  28     -0.24873787097345
  29    -1.4440207330459e-14
  30     -0.28757780123996
  31     -0.18421455354282
  32    4.6865590137123e-14
  33      0.53842757655277
  34      0.10654741182282
  35    3.318622536177e-14
  36      -0.5475295141679
  37    -0.0043891509847185
  38     0.017513895021118
  39    -9.8154906838882e-15
  40    -0.019974527391884
  41    8.3641904083351e-15
  42      0.28940218645232
  43       0.3573016610464
  44    -5.4709158791612e-15
  45     -0.14037240333822
  46    5.481633304343e-15
  47     -0.28108743214745
  48       1.9873300166918
  49    -0.035789750467181
  50      0.17965852058481
  51    -1.9891618194585e-15
  52    -0.061941653553972
  53     0.042462908890304
  54    -2.9276126547778e-14
  55      0.69322662297239
 Sym= A
 Ene=              13
 Spin= Alpha
 Occup=    0.00000
   1     -0.18784412563885
   2     -0.60721738819125
   3     -0.76186044814707
   4      0.92538593011216
   5     -0.34572994249042
   6    -2.2406045587278e-14
   7      0.12461978041633
   8       0.7349491075596
   9    -5.7685423712432e-14
  10      0.42868136338298
  11     -0.25126511616692
  12    7.5983347547227e-14
  13    -0.088338159083934
  14     -0.10997268859361
  15     0.026997262048298
  16    -2.6491678746307e-14
  17    -0.011713089967743
  18    2.7365464654579e-14
  19     -0.16997229629958
  20     -0.40878798922866
  21    3.6282192861931e-14
  22     -0.18567685808005
  23    -2.4507815520564e-16
  24     0.072956953430247
  25      0.15349286855112
  26      0.26509811530235
  27     -0.11343653474912
  28    -0.024033511230575
  29    -1.0423837084412e-14
  30      0.34880201363526
  31    -0.046396090533699
  32    3.6041125731045e-14
  33      0.78788209054936
  34     0.048324620435686
  35    -1.0330308419398e-13
  36     -0.52516479346857
  37      0.14595285897252
  38     -0.22510635246469
  39    1.2839138915715e-16
  40     0.010480692667085
  41    1.8200037653135e-14
  42      0.31058477617253
  43       0.2657118927429
  44    2.1923151390447e-14
  45      0.17875148738362
  46    -1.8738846959765e-14
  47      0.22629148737388
  48     -0.35115111467481
  49     0.069000922414995
  50     -0.22853095625514
  51    8.9482114609703e-15
  52     0.030013157561008
  53     -0.19749613990415
  54    1.2040086160227e-13
  55      0.20535161983318
 Sym= A
 Ene=              14
 Spin= Alpha
 Occup=    0.00000
   1     -0.55561435695336
   2     -0.99249446558695
   3       4.9420720369656
   4       2.5876394167103
   5    -0.010836168793833
   6    1.4372569730806e-13
   7     0.030807803327878
   8      -1.1443668399517
   9    4.7181379368888e-14
  10      -3.4997002597541
  11     0.078927483119553
  12    2.4849919201327e-13
  13     -0.35678755232139
  14      0.22679126440584
  15       0.1234521729028
  16    -1.893665766903e-13
  17    -0.0063999442292016
  18    1.482005755336e-13
  19       1.1314884648706
  20      0.55936231048455
  21    -4.4555143884726e-14
  22     0.034958610752243
  23    -6.6890740023825e-15
  24      0.24881449525947
  25      0.50117187734132
  26      -6.4739766165782
  27      -1.1334352925317
  28     -0.23345006896083
  29    -3.4941067324469e-13
  30      -1.1804008122025
  31     -0.77882547204242
  32    7.1465596960363e-13
  33      -2.2762418241077
  34     -0.34538148129836
  35    -7.3929048687356e-13
  36     -0.22022175367423
  37     -0.38058860593127
  38     -0.35928685523036
  39    -2.8186837578687e-13
  40      0.22644451258812
  41    -2.3851882284007e-15
  42     -0.86213242964833
  43     -0.24996201110462
  44    -2.7062133167051e-13
  45     0.023997315939888
  46    1.7028310007873e-13
  47       -0.211629278556
  48      0.73212912737714
  49     -0.15472440131065
  50    -0.022947450116786
  51    2.1402002918816e-13
  52    -0.035303463753016
  53     -0.32150565569761
  54    -4.9806639765889e-13
  55     -0.17452901637463
 Sym= A
 Ene=              15
 Spin= Alpha
 Occup=    0.00000
   1      0.49670721293714
   2       1.1294905718232
   3      -2.0667256330762
   4       -2.592512356681
   5     -0.50630649346754
   6    1.2539790363612e-12
   7     0.015392500038414
   8       1.3690797059149
   9    -1.3072203961647e-12
  10      0.81649275269079
  11     0.022720227635959
  12    -2.7927829470273e-13
  13      0.68808778564211
  14     -0.37170508902198
  15     -0.12446252089265
  16    -1.1074445786073e-12
  17      -0.1707421404425
  18    -1.1066549103143e-12
  19      0.15078448966783
  20     -0.68808100924197
  21    6.9822653162677e-13
  22     -0.27205365591522
  23    2.9290711713392e-13
  24      0.24215952686018
  25      0.54941127537482
  26      0.76964363516476
  27       1.9014169595887
  28     -0.13584882375512
  29    -6.0369303276605e-13
  30      0.21019849930182
  31     -0.35679766937573
  32    2.3150527642636e-12
  33       1.3496211723829
  34     0.048210944259225
  35    -1.2795629449416e-12
  36      0.52935355666229
  37     0.036138274960636
  38     -0.33750524631851
  39    -3.403994890603e-13
  40     0.036184780042505
  41    -2.5923626883974e-13
  42        0.277399120803
  43    0.0042523841022458
  44    -1.531278392218e-13
  45     -0.10216162594881
  46    9.9590271069297e-13
  47     0.084608218082062
  48      0.75556317656211
  49     -0.10624987846273
  50      0.14144574792405
  51    -5.6474519852925e-13
  52    -0.037682000851693
  53     -0.29604073462929
  54    -7.9533421359213e-13
  55      0.19450785962918
 Sym= A
 Ene=              16
 Spin= Alpha
 Occup=    0.00000
   1    -0.00016015094648757
   2    1.6622100615266e-05
   3    0.0023652903681535
   4     0.026872942858927
   5    -0.0026830577532409
   6     -0.23181361502458
   7    0.0010576116293803
   8    -0.006278859859228
   9     -0.37242245337643
  10    0.0011288057127076
  11     0.034811303092368
  12       2.0575779978462
  13    -0.047564671316327
  14    -0.00035335277520077
  15    0.00018943808488105
  16     0.016338420246246
  17    9.4254541878831e-06
  18    0.0042038924092919
  19    0.0034145171525663
  20    3.9329543510667e-07
  21    -0.075704376771956
  22    9.9872602893348e-06
  23    -0.016589380473317
  24    0.00019049521866101
  25    0.00014699471941242
  26    -0.0051734254972078
  27    -0.068160155479251
  28    -0.0012748043744611
  29      0.12240644139241
  30    -0.00068478860064769
  31    -0.00071427806336122
  32     0.057231238632047
  33    -0.0041785836890796
  34    -0.041226311890913
  35      -1.5931636749319
  36     0.030193020214611
  37    -0.00063068786950628
  38    -0.00048635466177767
  39    -0.003918189773684
  40    0.00027308105259616
  41     0.006800446361036
  42    0.00025322753741949
  43    0.0011639493898347
  44     -0.11471068483091
  45    -0.0012684973418025
  46    -0.049270385436397
  47    0.00020394194516875
  48    0.0093168682057136
  49      0.03481145768726
  50     0.001098186928031
  51     0.004246130035127
  52    4.1197395762058e-05
  53    0.0033540619263731
  54      0.13124885557825
  55    -0.0073382637798193
 Sym= A
 Ene=              17