[Molden Format]
made by pyscf v[2.13.1]
[Atoms] (AU)
O   1   8     0.21099695469856     0.00000000000000     2.15462460678861
N   2   7    -0.44776862100326     0.00000000000000    -0.03589262653049
H   3   1     1.18163474748449     0.00000000000000    -1.17386889907833
[GTO]
1 0
 s    8 1.00
                 11720  0.00070964594651845
                  1759  0.0054672722921914
                 400.8   0.027823118610189
                 113.7    0.10474773971146
                 37.03    0.28292084635691
                 13.27    0.44849523869833
                 5.025    0.27081688521277
                 1.013    0.01545029160744
 s    8 1.00
                 11720  -0.00031444341168873
                  1759  -0.0024821376810179
                 400.8  -0.012316355381583
                 113.7  -0.050538917343672
                 37.03   -0.13938490331632
                 13.27   -0.32507749481778
                 5.025   -0.22984830758785
                 1.013     1.0953793467883
 s    1 1.00
                0.3023                   1
 s    1 1.00
               0.07896                   1
 p    3 1.00
                  17.7   0.062679166281506
                 3.854    0.33353656587936
                 1.046    0.74123964163973
 p    1 1.00
                0.2753                   1
 p    1 1.00
               0.06856                   1
 d    1 1.00
                 1.185                   1
 d    1 1.00
                 0.332                   1

2 0
 s    8 1.00
                  9046  0.00069961741342552
                  1357  0.0053860546299287
                 309.3   0.027391021189057
                 87.73    0.10315059198201
                 28.56    0.27857066331743
                 10.21    0.44829484945412
                 3.838    0.27808592839527
                0.7466   0.015431561233271
 s    8 1.00
                  9046  -0.00030499009595337
                  1357  -0.0024080263785077
                 309.3   -0.01194444872518
                 87.73  -0.048925992909017
                 28.56   -0.13447272472496
                 10.21   -0.31511257770011
                 3.838   -0.24285783254964
                0.7466     1.0943822068542
 s    1 1.00
                0.2248                   1
 s    1 1.00
               0.06124                   1
 p    3 1.00
                 13.55   0.058905676772132
                 2.917    0.32046110671427
                0.7973    0.75304206179207
 p    1 1.00
                0.2185                   1
 p    1 1.00
               0.05611                   1
 d    1 1.00
                 0.817                   1
 d    1 1.00
                  0.23                   1

3 0
 s    3 1.00
                 13.01   0.033498726389998
                 1.962    0.23480080117413
                0.4446     0.8136829578829
 s    1 1.00
                 0.122                   1
 s    1 1.00
               0.02974                   1
 p    1 1.00
                 0.727                   1
 p    1 1.00
                 0.141                   1

[5d]
[7f]
[9g]

[MO]
 Sym= A
 Ene=               0
 Spin= Alpha
 Occup=    1.00000
   1    0.0016568661195645
   2     0.053916030556652
   3     0.098897028928529
   4      0.03139060253509
   5     -0.21777045334452
   6    -7.2576298976088e-16
   7      0.42087548353143
   8     -0.13551940525435
   9    2.2139622728766e-16
  10      0.25946083867179
  11    -0.0091761052845215
  12    5.4407578065717e-16
  13    0.0097163177878586
  14    -0.020851130863859
  15     0.004060933435015
  16    1.0298097850196e-16
  17    0.0029427867203287
  18    -6.966764784213e-18
  19    -0.021186584874985
  20     0.004588658274105
  21    -5.1125289410304e-16
  22    0.0006279231309033
  23    -3.8260650958775e-17
  24    0.00041528132410716
  25     0.092576550966629
  26      0.22673732045204
  27     0.014308794512403
  28     -0.33111225047837
  29    -8.737493718215e-16
  30     -0.28158432237542
  31     -0.16426315082114
  32    -1.329388020878e-15
  33     -0.10769605481943
  34    -0.014748688864431
  35    -6.9572657911476e-16
  36    -0.0034995672089852
  37    -0.0072219225360499
  38    -0.034221578618697
  39    -7.4687466936448e-17
  40    -0.013177639958836
  41    -5.438668021375e-18
  42    0.0044952199922917
  43    0.0037501860720556
  44    -5.7507695011701e-16
  45    -0.0053936834919679
  46    -3.8740921755318e-16
  47    -0.00040699657883948
  48      0.02987490364525
  49    0.0031808614470472
  50    -0.0042190156532734
  51    2.332418734104e-17
  52    -0.0075269359512028
  53    -0.0086586769807424
  54    2.1635976331618e-16
  55    0.0088829552285411
 Sym= A
 Ene=               1
 Spin= Alpha
 Occup=    1.00000
   1    -0.00028760131392565
   2    -0.051688051106362
   3    -0.090133427479386
   4    -0.038910671420178
   5      0.49162342083234
   6    -1.5194515455918e-14
   7      -0.1263716781205
   8      0.39079287242065
   9    -1.1037718948409e-14
  10    -0.079905378115209
  11     0.086884063181432
  12    -1.7901454208535e-16
  13    -0.0094391134525869
  14    -0.00053913499658711
  15    -0.00041450288554991
  16    9.4334136320051e-16
  17    -0.00059732857652109
  18    2.5679034643856e-16
  19    0.0017123049987532
  20    -0.011589046705986
  21    1.2210823423159e-15
  22    -0.0040823069775828
  23    1.8250860256002e-16
  24    0.00097368603516626
  25      0.15201455293343
  26      0.30966105542403
  27      0.13482099066056
  28     -0.37643621203834
  29    -1.1956722002695e-14
  30    -0.032554383809722
  31     -0.27281836228437
  32    -7.0338843671869e-15
  33    0.0048021781328774
  34    -0.049938162756648
  35    -1.6613568138118e-15
  36    -0.0020674377591595
  37    -0.010101933307222
  38      0.02452396136566
  39    -1.2714675703961e-15
  40    -0.0093221798456097
  41    -5.4624341179003e-16
  42     0.014558699601591
  43    0.0028411614835389
  44    2.0045558862199e-17
  45    -0.0078726578763628
  46    -5.9124415003248e-16
  47     -0.25062368670742
  48     -0.14085250344745
  49     -0.02425436881707
  50    0.0090505294258025
  51    -2.9662685456784e-16
  52    -0.013204096443388
  53    -0.0064328629668246
  54    1.9565073123923e-16
  55      0.01809027432246
 Sym= A
 Ene=               2
 Spin= Alpha
 Occup=    1.00000
   1    1.744357382426e-15
   2    -5.7959881165702e-14
   3    -1.0880294963302e-13
   4    -6.0444369349199e-14
   5    -7.1443057887498e-14
   6      0.46121976843488
   7    -8.1337640665388e-14
   8    -3.8874177352051e-14
   9      0.32974340462069
  10    -2.6730042692567e-14
  11    2.4304775501299e-15
  12     0.030802567338183
  13    9.3364670618496e-15
  14    4.1349650581695e-15
  15    4.5489050344011e-15
  16    -0.026824120160976
  17    4.7116143993546e-16
  18    -0.0071124454579522
  19    6.7331113727618e-16
  20    3.2636599228947e-15
  21    -0.038877470563028
  22    5.2751119046275e-17
  23    -0.0090210235614491
  24    -5.177824688503e-16
  25    1.019288133052e-13
  26    1.0873453943822e-13
  27    5.0489050658965e-14
  28    -3.1436625525269e-14
  29      0.36554341648903
  30    2.8147804697641e-14
  31    -1.5898003963295e-14
  32      0.21781160050653
  33    2.6191343774226e-14
  34    4.0979732458765e-15
  35     0.017054177082774
  36    1.2078863428051e-14
  37    4.9628272170149e-15
  38    -1.4262573365664e-17
  39     0.037460083469865
  40    -1.2234607115564e-15
  41     0.019463655437898
  42    4.4775792051659e-15
  43    8.4741369102286e-15
  44    -0.0022756620392066
  45    -4.5859075418431e-16
  46     0.013052508618961
  47    1.0916285636533e-14
  48    -6.3873048123136e-15
  49    -5.0355826260133e-15
  50    -3.3128546483248e-15
  51    0.0098714669262827
  52    1.461662879894e-15
  53    -8.7649938269045e-16
  54    -0.0027623694064091
  55    -1.9834472422489e-15
 Sym= A
 Ene=               3
 Spin= Alpha
 Occup=    1.00000
   1    -0.0085433620261738
   2    0.0086126347242318
   3     0.091034923360272
   4      0.03841718699882
   5      0.13932309273873
   6    1.0018175002646e-13
   7      0.21249671810652
   8     0.081166455084473
   9    7.334152132589e-14
  10     0.094295060394628
  11    0.0068813858618346
  12    6.3716505760931e-15
  13    -0.0079016054145788
  14    -0.018040751156499
  15    -0.0095992814136048
  16    -5.7487481351294e-15
  17    0.00011208786295545
  18    -1.4736093335004e-15
  19    -0.013915882687929
  20    -0.0058341196868721
  21    -9.1554564347752e-15
  22    -0.00092024096535034
  23    -2.3288036041634e-15
  24    -0.014522328126274
  25     -0.44371245387232
  26     -0.35517644771672
  27    -0.026654048676457
  28    -0.074575350288779
  29    7.9533127240494e-14
  30    0.0041207219426212
  31    -0.00041739046867569
  32    4.6016347261754e-14
  33     0.014228143986036
  34    -0.0065316450157198
  35    4.0477771243361e-15
  36    -0.0018555213520644
  37    -0.012069490229053
  38    0.0018504845854633
  39    8.1134421841752e-15
  40    -0.0058453872976307
  41    4.2482566150996e-15
  42    -0.0045349955352806
  43    -0.014700934785974
  44    -1.5353793494408e-15
  45     0.011059018546366
  46    2.4292354386757e-15
  47     -0.23143405222132
  48    -0.0025202043953535
  49    4.4749511980265e-05
  50     0.029133112390152
  51    2.1881245261094e-15
  52    -0.019272552500965
  53    -0.012076081362361
  54    -5.3135060733824e-16
  55     0.011111685527926
 Sym= A
 Ene=               4
 Spin= Alpha
 Occup=    1.00000
   1    0.0032749412588024
   2      0.45842063206326
   3      0.58953099374032
   4     0.081480307745216
   5      0.19113078265058
   6    6.7873895201253e-14
   7     0.097471097779743
   8      0.11829298621042
   9    4.8649581530523e-14
  10     0.019104683300598
  11    0.0078861153879497
  12    4.2055649774531e-15
  13    -0.0018555527334149
  14    0.0025031709481815
  15    -0.0049088800403068
  16    -3.935404268416e-15
  17    -0.00067448804679837
  18    -1.0349282930467e-15
  19     0.006991409303357
  20    -0.0062567185916985
  21    -5.8134481223511e-15
  22    0.00057571406129324
  23    -1.3620380834582e-15
  24     0.042475076217481
  25    0.0086076160813638
  26     -0.11202486484661
  27    -0.026482252318594
  28     0.093964452523519
  29    5.3664622132005e-14
  30     0.025673558105721
  31     0.010746187732374
  32    3.1975812294248e-14
  33    -0.060067836505357
  34    -0.00054822287823699
  35    2.6907336870215e-15
  36     -0.01373609131964
  37    0.0065578487901539
  38     0.015094534093151
  39    5.5300339746811e-15
  40    0.0039672112660578
  41    2.8117706850118e-15
  42    -0.012990803054749
  43    -0.013189626680896
  44    -4.5421862252593e-16
  45    -0.0050095677458555
  46    1.9646701500934e-15
  47     0.035637944915137
  48    -0.011638165370751
  49    -0.0013155998455735
  50    -0.0048529856000381
  51    1.5044504524563e-15
  52    0.0051223632794606
  53     0.004922341321104
  54    -6.1742109905331e-16
  55    0.00036811119621837
 Sym= A
 Ene=               5
 Spin= Alpha
 Occup=    1.00000
   1    -0.0010775963124312
   2     -0.12844103953577
   3     -0.12679036980572
   4     0.014497077810015
   5      0.31138898870603
   6    4.2688102472598e-14
   7       0.1873002091933
   8      0.19457306713902
   9    3.0203847034685e-14
  10      0.11348115208341
  11    -0.0015384861629996
  12    2.3143309292058e-15
  13    -0.0003109908738011
  14    -0.0073690253123361
  15    -0.019024269251192
  16    -2.5141295140594e-15
  17    -0.0040281879254848
  18    -6.6903592285378e-16
  19    -0.0044098281247613
  20    -0.021961932958453
  21    -3.3180249879986e-15
  22    -0.0024899946836508
  23    -8.0938083305811e-16
  24    -0.046193427449579
  25    -0.017631354171906
  26     0.059719069187322
  27    0.0045753459316327
  28      0.22324077203307
  29    3.3510736081517e-14
  30     -0.37042694676468
  31     0.091774641529512
  32    2.0579171306537e-14
  33    -0.082320894255681
  34     0.010837413778726
  35    1.5242239983205e-15
  36    -0.0034963871134911
  37     -0.03616663850812
  38    -0.019006369280751
  39    3.4282307070228e-15
  40     0.016045215616696
  41    1.8282733604154e-15
  42     0.018121853414919
  43    -0.001698860570337
  44    -6.1650686036632e-18
  45    -0.0069827911050565
  46    1.2757995269453e-15
  47      0.29584966673333
  48     0.059411144886142
  49    -0.00016948068348963
  50    -0.024739866307727
  51    8.8530312271375e-16
  52     0.014715428593281
  53     0.001111706684498
  54    -1.9521184600899e-16
  55    0.0076582483474492
 Sym= A
 Ene=               6
 Spin= Alpha
 Occup=    1.00000
   1     -0.48898457287008
   2    -0.022871005548722
   3    -0.020462481021782
   4    -0.0014595710468234
   5    0.0053797441766146
   6    6.1653993587739e-16
   7    0.0046826572303868
   8    0.0030803695034281
   9    -1.8723148548515e-15
  10    0.0018433020597543
  11    -0.00026650615084272
  12    -1.6488280991572e-15
  13    -3.2329741113799e-05
  14    -0.00082926106302967
  15    -0.00064374622609972
  16    -7.1063352692967e-16
  17    -0.00030289991009669
  18    -2.1662872952369e-16
  19    -0.00059724972492271
  20    -0.0007480657168953
  21    2.4771747273835e-15
  22    -0.00021927614218553
  23    6.0113295307801e-16
  24      0.87264458213958
  25    -0.00038310083441598
  26    -0.0048267715802374
  27    -0.0017213722802737
  28    0.0049105769557733
  29    5.2691221234451e-16
  30      -0.0130966427577
  31    -0.00083061545208998
  32    3.3763896441123e-15
  33    -0.003168075242687
  34      -0.0003162383739
  35    1.3587877652505e-15
  36    0.00040589005275697
  37    -0.00095400644435633
  38    -0.0010113566119876
  39    1.8716437900246e-16
  40    0.00084679025556929
  41    7.3687482545462e-17
  42    -9.5051000971601e-05
  43    -0.00027286636820411
  44    2.0661939758857e-15
  45    -0.00044880514892899
  46    9.6600740308975e-16
  47     0.007772675648399
  48    0.0067583742850148
  49    0.00060165502646441
  50    -0.00014879760551645
  51    -9.371116371955e-17
  52    2.8656441636939e-05
  53    -0.0016158419246113
  54    -3.292679962236e-16
  55    0.0016377837281006
 Sym= A
 Ene=               7
 Spin= Alpha
 Occup=    1.00000
   1      0.87468699989899
   2     -0.01495232862993
   3    -0.035700291897074
   4    -0.0066607524302093
   5    0.0040227327511693
   6    5.9827863800053e-16
   7    0.0044556960204508
   8    0.0048757796244095
   9    -1.0227337416885e-15
  10     0.012358394457607
  11    0.00015999367653144
  12    -1.0417624386999e-15
  13    0.00077225230254109
  14    -0.00053222284044325
  15    -0.00051282553216219
  16    -4.0124643349253e-16
  17    0.0001707052034161
  18    -1.5280639129495e-16
  19    -0.0027531634211243
  20    -0.0015565850875642
  21     1.48602219098e-15
  22    -0.0002974833388995
  23    3.3754407191845e-16
  24       0.4877203829172
  25    -0.0086111443639756
  26    0.0053798225228919
  27    0.0026342183669282
  28    0.0021163304828736
  29    4.7177132144508e-16
  30    -0.0092630632168154
  31    0.0028762791710532
  32    2.1265921303207e-15
  33    0.0084333255060416
  34    -9.9512046370411e-05
  35    7.9972885159003e-16
  36    0.0015341986608996
  37    -0.0012869515364454
  38    -0.0010919593690267
  39    1.1395401731291e-16
  40    0.00042171566021262
  41    4.8072469116562e-17
  42    0.0025618471810717
  43    0.0015156962535434
  44    1.2483229858994e-15
  45    0.00029379764521961
  46    5.9206788948753e-16
  47    0.0015143461710901
  48    0.0061230335230238
  49    0.00019951015857877
  50    0.00046994272767971
  51    -5.0005191337032e-17
  52    -0.0005577002339985
  53    -0.0019086943981344
  54    -1.9409932188907e-16
  55     0.001301944998619
 Sym= A
 Ene=               8
 Spin= Alpha
 Occup=    0.00000
   1    8.576954836688e-16
   2    1.345794223276e-15
   3    -1.0700079715959e-14
   4    -6.2276031196724e-14
   5    4.002909534292e-16
   6     -0.48764708610453
   7    -1.2821419886013e-15
   8    5.2422027998634e-15
   9     -0.39278149123176
  10    8.1736863176736e-15
  11    -4.6964869074374e-16
  12     -0.10117028330378
  13    1.8839307292609e-14
  14    -1.033239726943e-16
  15    5.3643576104436e-16
  16    -0.0040059348919747
  17    3.3356343585051e-17
  18    -0.0034623874107847
  19    -1.930731772492e-15
  20    -2.1970488665439e-15
  21     0.010456619635213
  22    -4.8454482886142e-16
  23    -0.0051652955735079
  24    -1.5570331485635e-15
  25    -4.576706239369e-15
  26    1.8675949886376e-14
  27    7.720485224447e-14
  28    -2.0901124462667e-15
  29      0.53995269065721
  30    3.4633055204416e-15
  31    3.7067606585638e-15
  32      0.45017603061113
  33    1.083162572703e-14
  34    1.501405134286e-14
  35      0.10239014701682
  36    1.2745264689453e-14
  37    2.1111464412826e-16
  38    3.171843068748e-16
  39    -0.0076704269246133
  40    3.1990405306344e-17
  41     0.016431090665705
  42    3.4232223458597e-15
  43    -4.8882266614065e-17
  44    0.0040441546485338
  45    2.772697131605e-16
  46     0.024971375331275
  47    1.2038688395511e-15
  48    -9.9669416366799e-15
  49    -7.4009795088149e-15
  50    5.8639033970553e-16
  51     0.019027832723254
  52    -9.0570078976125e-16
  53    3.248588467328e-15
  54     0.016132046056166
  55    -3.9075185592572e-15
 Sym= A
 Ene=               9
 Spin= Alpha
 Occup=    0.00000
   1    1.5039339244634e-15
   2    2.1874949787973e-14
   3    6.275767744971e-14
   4    -1.4849170987929e-13
   5    -9.2405876815241e-15
   6      -0.3457731971824
   7    5.7778823607025e-15
   8    -6.6434306295278e-15
   9    -0.060265009223571
  10    8.2730945689961e-15
  11    7.7759657761712e-14
  12      0.54471210623541
  13    2.2981219037691e-13
  14    5.8504442076351e-15
  15    -1.041465036675e-15
  16    -0.012870520327798
  17    -2.0720372455887e-15
  18    -0.024417048058518
  19    -3.1485570640016e-15
  20    -6.7608859197102e-15
  21    -0.065423678014321
  22    -4.7542068431581e-15
  23    -0.040762892095942
  24    9.9158096843537e-15
  25    7.0257908779704e-14
  26    1.4062657056885e-13
  27    2.5220238591613e-13
  28    7.6847914349545e-14
  29     -0.36434405479017
  30    -7.6423313954294e-14
  31    4.472142592745e-14
  32    0.0037433977032299
  33    -4.2818933307968e-14
  34    -5.256904960439e-14
  35      0.45265398978362
  36    -4.3004775642519e-14
  37    2.9766264905992e-15
  38    3.9262588076841e-15
  39     0.040026674894678
  40    1.1051532837284e-15
  41    -0.031851900715382
  42    8.0114270429405e-15
  43    5.3769157104268e-15
  44      0.18115963510164
  45    -2.6228150487819e-15
  46     0.021653039634233
  47    -2.5245530053577e-14
  48    -5.8530952590569e-14
  49    -5.0146346071381e-13
  50    -1.3010876931268e-14
  51    -0.012684417191288
  52    3.7073788656085e-15
  53    -6.2568289648897e-14
  54    -0.041159191896143
  55    2.6662928081998e-14
 Sym= A
 Ene=              10
 Spin= Alpha
 Occup=    0.00000
   1     0.019264395087959
   2       0.1934724826839
   3      0.52046660722616
   4     -0.12469611013063
   5     -0.12510488215072
   6    1.4067434260323e-13
   7     -0.10042030425027
   8    -0.044265643930111
   9    -4.4765713537084e-14
  10     -0.32221450099832
  11      0.29288110594079
  12    1.2514497495357e-13
  13      -0.2472050535387
  14    -0.087975006310455
  15    -1.3045861430697e-05
  16    -3.4180658180623e-15
  17     -0.11672533648284
  18    9.2322913191384e-15
  19     -0.13497397682974
  20     0.032579274793515
  21    2.9321735902257e-14
  22     -0.16725345293493
  23    1.1633281876396e-14
  24    -0.0079182749658142
  25     -0.16476430061091
  26     -0.45956388964231
  27     0.095620779718234
  28    0.0081493771561679
  29    5.7876390441417e-14
  30    -0.078572200302352
  31     -0.21247634225444
  32    -2.0740708103188e-13
  33     -0.44297859837799
  34     -0.39685503912855
  35    -1.322628241185e-14
  36      -0.1760313395464
  37      0.16038113172459
  38     0.031613355020763
  39    -8.6473515872812e-14
  40      0.25799648309927
  41    4.2258947649381e-15
  42     0.074858983454931
  43    -0.0047963421833301
  44    -1.5601536558531e-13
  45      0.33655385493841
  46    2.0212699708025e-14
  47      0.10899397238372
  48    -0.072334914232818
  49    -0.065927932289412
  50    -0.014770281136133
  51    5.0931381265721e-15
  52    -0.0052760148460742
  53     -0.04082782402629
  54    1.9317414875728e-13
  55    -0.026681540636656
 Sym= A
 Ene=              11
 Spin= Alpha
 Occup=    0.00000
   1    8.9153019175123e-15
   2    3.7169148187349e-14
   3    7.9764683246616e-15
   4    3.4916614844207e-13
   5    -6.4586204031016e-14
   6     -0.62031117463159
   7    -2.4488340087166e-14
   8    -7.0374374805241e-15
   9      0.30410113507698
  10    -1.0741512424959e-13
  11    5.8871632649586e-14
  12      0.13869954214741
  13    -3.0476107088278e-13
  14    -4.1750777309768e-14
  15    4.5462565729093e-16
  16     0.085757767968558
  17    -1.9896548753933e-14
  18    -0.0054087999984073
  19    -3.057384841904e-14
  20    2.2410084002291e-15
  21    -0.001105725694119
  22    -4.556603555314e-14
  23    -0.076304642330196
  24    8.0099012285734e-15
  25    -4.6595206252628e-14
  26    -2.8115647836458e-13
  27    -5.8989790065299e-13
  28    -2.5178956104003e-14
  29      -0.0165713999081
  30    -1.4370246583658e-14
  31    -1.4449811026631e-13
  32      0.27453855056081
  33    -7.6655039994287e-14
  34    -1.4396724120721e-13
  35     -0.59517021013598
  36    -1.3488718773541e-14
  37    3.610538203609e-14
  38    9.6160685435215e-15
  39      0.24432604505633
  40    7.3024603139629e-14
  41      0.22140855206153
  42    4.0997953239834e-14
  43    3.1741537664385e-15
  44      0.40702015031711
  45    9.6486598934204e-14
  46      0.25436718424972
  47    -3.6594087635919e-14
  48    2.1379153326789e-13
  49    4.9107083474374e-13
  50    2.6427301223593e-14
  51     0.047118338504916
  52    3.7612894772946e-15
  53    4.5060598378344e-14
  54     -0.18368785182515
  55    5.2591059367317e-14
 Sym= A
 Ene=              12
 Spin= Alpha
 Occup=    0.00000
   1    -7.8590880426264e-16
   2    -1.5853274371513e-14
   3    -1.4067933565096e-13
   4    1.9269189674703e-13
   5    -7.437728262457e-14
   6    -0.077867004899945
   7    -2.7465434999485e-14
   8    7.7235771843955e-14
   9      0.14786733972785
  10    -8.6090560220103e-14
  11    -5.1217928724348e-14
  12     -0.87511892105812
  13    -1.731611382688e-13
  14    -4.9963350986101e-14
  15    5.3845602812705e-15
  16     -0.16659901238658
  17    -1.9861592147283e-14
  18       0.1273663217175
  19    -4.5112586912945e-14
  20    -2.2635312773234e-14
  21     -0.35016416030112
  22    -5.2289296291514e-14
  23     0.078394093504452
  24    5.8644545768811e-15
  25    -6.794396210264e-14
  26    -3.5962181002857e-13
  27    -2.6294025858848e-13
  28    -5.4783393706737e-14
  29     -0.69197441566652
  30    3.7496272931786e-14
  31    -1.7865760238911e-13
  32      0.66191090363457
  33    4.2044781577716e-14
  34    3.7973110047159e-14
  35      0.26494681048044
  36    3.6700772778195e-14
  37    4.7414744662769e-14
  38    6.6460890953421e-15
  39     0.022221316105843
  40    6.7972590537553e-14
  41      -0.2450568256429
  42    8.3819086566886e-14
  43    -8.1631537233596e-15
  44      0.22189191480508
  45    9.1443185929076e-14
  46     -0.24609997013937
  47    9.478658402916e-15
  48    2.6112245792282e-13
  49    5.206265825487e-13
  50    5.4372490182693e-15
  51    -0.0056859661067735
  52    1.320456998838e-14
  53    -3.8527122654487e-14
  54     0.082481933149053
  55    1.2142479516904e-13
 Sym= A
 Ene=              13
 Spin= Alpha
 Occup=    0.00000
   1    7.6708267370424e-15
   2    1.757479966979e-14
   3    -2.269184839472e-13
   4    -2.0989043877256e-13
   5    2.6954569515432e-15
   6     0.023637048145703
   7    -4.4463169548681e-14
   8    5.6442030931481e-14
   9     -0.49925699392349
  10    4.157142882009e-14
  11    -1.1928271127035e-13
  12     -0.42794337862472
  13    2.2183169640506e-13
  14    4.7986320922509e-15
  15    2.0135102048713e-14
  16      0.23804989644315
  17    -1.059045403537e-14
  18      0.15262461171284
  19    -1.1502723463464e-13
  20    -3.8958511533177e-14
  21      0.42351230964034
  22    -4.7556521531882e-14
  23      0.26250985109614
  24    2.647670759704e-14
  25    3.8774561752009e-14
  26    -1.3905757869349e-13
  27    5.206288871911e-13
  28    9.4782458513929e-14
  29      0.48593594340109
  30    -5.3067660305767e-14
  31    -6.8613734523213e-14
  32     0.034533902154293
  33    1.3670947678244e-13
  34    2.5436810234635e-13
  35      0.57527674482155
  36    -4.3524553012282e-14
  37    4.1955291109803e-14
  38    2.545533597321e-15
  39      0.60021699509946
  40    5.1111505536038e-14
  41     -0.25023650286285
  42    1.5056271087438e-13
  43    8.0447775102419e-15
  44      0.48127953521311
  45    9.3052489206533e-14
  46      -0.1881608311485
  47    8.1877956262573e-14
  48    -2.4713291158652e-14
  49    -3.5602809703661e-13
  50    -2.5969799083771e-14
  51     -0.14044973499812
  52    -8.2942146409402e-15
  53    -3.260056889612e-13
  54    -0.022627945465956
  55    1.8022837563787e-13
 Sym= A
 Ene=              14
 Spin= Alpha
 Occup=    0.00000
   1    3.9477238254924e-14
   2    6.0011839855444e-14
   3    -7.2869292548317e-13
   4    -7.3032954856382e-13
   5    1.6817419764001e-13
   6      -0.1580461641859
   7    4.9183121211941e-14
   8    -2.9413293567588e-13
   9     0.044411448774066
  10    8.8514165951666e-13
  11    -3.1858868339616e-13
  12     0.040414298949431
  13    5.0565760059682e-13
  14    -5.478220015269e-14
  15    9.2842981336287e-14
  16      0.47572337885811
  17    1.3026376439622e-13
  18     -0.19413390342197
  19    -2.3893456309679e-13
  20    -6.5024647094634e-14
  21      0.41987742180691
  22    -7.9057006353314e-14
  23     0.045950750081216
  24    3.8711148777796e-13
  25    9.7806002255257e-13
  26    -2.0827434574929e-13
  27    5.3682981219092e-13
  28    -2.2043424742078e-13
  29     -0.36401625641218
  30    1.2842063224438e-13
  31    6.8991846133909e-13
  32       1.3006337775356
  33    6.5417138542347e-13
  34    2.3514974557808e-13
  35     -0.23048860202506
  36    -3.8019472576674e-13
  37    1.8972650597354e-13
  38    -1.3945725124954e-13
  39      0.11482269503078
  40    1.7968031551132e-13
  41     -0.44486923065285
  42    6.7200273947845e-14
  43    5.9522568753257e-13
  44     -0.32469112058147
  45    6.9704985847047e-14
  46       0.4795503781617
  47    1.6600777635074e-13
  48    5.8180195019523e-13
  49    -8.9811675912236e-13
  50    9.0041344088067e-14
  51    -0.0055156938098326
  52    -3.1773753449143e-14
  53    -4.3673781038077e-13
  54     -0.75043738431656
  55    3.4963021923515e-13
 Sym= A
 Ene=              15
 Spin= Alpha
 Occup=    0.00000
   1    -8.2766476637572e-15
   2    5.6824606638371e-14
   3    2.2986075344955e-13
   4    -1.0569592427569e-12
   5    2.0602480338092e-14
   6     -0.56898869443707
   7    -4.9293373853298e-13
   8    3.7590756004426e-14
   9       2.2291791740634
  10    1.1741211253417e-13
  11    -1.0807020608386e-13
  12     -0.84173160076284
  13    4.3977986640314e-13
  14    1.9202045435715e-13
  15    3.220992223782e-13
  16      0.45137585475812
  17    2.8868349971872e-13
  18     -0.30176381710537
  19    1.9819539554559e-13
  20    -2.5622253583184e-13
  21      -1.0551733251171
  22    -1.0064045763259e-13
  23     -0.02293771348556
  24    -3.9060200850616e-13
  25    -1.0174227972014e-12
  26    9.4986225589632e-13
  27    7.6709478908628e-13
  28    -7.3549414313296e-14
  29      0.18162828959363
  30    -3.4977954915568e-13
  31    -3.3864477890548e-13
  32      -2.0373920337525
  33    1.4038265183833e-13
  34    3.7627516466055e-13
  35      0.59696285207096
  36    -9.5760102811218e-14
  37    -1.8612994364663e-13
  38    -1.6094087821078e-13
  39     -0.13533395130192
  40    -5.5006966970556e-14
  41      0.24093448583304
  42    -2.53036756566e-14
  43    -8.3440402998917e-14
  44     -0.87854495664664
  45    -1.4756358461457e-13
  46     -0.84267868198995
  47    -7.404878250024e-14
  48    1.1787259928623e-13
  49    9.8533116483724e-14
  50    5.643254813572e-14
  51    -0.0043372181625548
  52    -8.2256599556379e-14
  53    1.3885803537715e-13
  54      0.70634847389062
  55    1.7365808861219e-13
 Sym= A
 Ene=              16
 Spin= Alpha
 Occup=    0.00000
   1    0.0044468061876898
   2    -0.042606115922232
   3     -0.26399436487684
   4      -1.6806763826672
   5    -0.054058727580309
   6    -0.058289339100323
   7    -0.029088023065001
   8    -0.035732455966258
   9      0.48645979001951
  10      0.11771313378907
  11        1.096170043162
  12       1.0622095304632
  13      0.89637816782218
  14     0.011171880124746
  15     0.010293461326177
  16     0.072086714004317
  17     0.017070819987001
  18    0.0078931517354827
  19    -0.020922473554294
  20     -0.07070644296499
  21     -0.60294844743626
  22    0.0031562646538291
  23     0.083012336912741
  24    -0.014754331419484
  25    -0.077433869232153
  26      0.30319833444573
  27       3.3808407930993
  28    0.0053126699347342
  29     0.054215912484851
  30     0.096585332518976
  31      0.17023850123592
  32     -0.77631068581888
  33      0.28516144905461
  34     -0.43199719362528
  35      -1.1913954001713
  36    -0.0080212715090822
  37    -0.015255807033872
  38    0.0055862040891764
  39    -0.041132885445842
  40    -0.023458526411647
  41    -0.038449733130436
  42     0.079987655893801
  43    -0.084318884248014
  44     -0.40810292876998
  45    -0.065634206911033
  46     -0.66632694988428
  47    -0.0027647839546415
  48     -0.49131548336265
  49     -0.71643623994358
  50     0.017852075894676
  51    -0.035225168942164