[Molden Format]
made by pyscf v[2.13.1]
[Atoms] (AU)
O   1   8     0.21099695469856     0.00000000000000     2.15462460678861
N   2   7    -0.44776862100326     0.00000000000000    -0.03589262653049
H   3   1     1.18163474748449     0.00000000000000    -1.17386889907833
[GTO]
1 0
 s    8 1.00
                 11720  0.00070964594651845
                  1759  0.0054672722921914
                 400.8   0.027823118610189
                 113.7    0.10474773971146
                 37.03    0.28292084635691
                 13.27    0.44849523869833
                 5.025    0.27081688521277
                 1.013    0.01545029160744
 s    8 1.00
                 11720  -0.00031444341168873
                  1759  -0.0024821376810179
                 400.8  -0.012316355381583
                 113.7  -0.050538917343672
                 37.03   -0.13938490331632
                 13.27   -0.32507749481778
                 5.025   -0.22984830758785
                 1.013     1.0953793467883
 s    1 1.00
                0.3023                   1
 s    1 1.00
               0.07896                   1
 p    3 1.00
                  17.7   0.062679166281506
                 3.854    0.33353656587936
                 1.046    0.74123964163973
 p    1 1.00
                0.2753                   1
 p    1 1.00
               0.06856                   1
 d    1 1.00
                 1.185                   1
 d    1 1.00
                 0.332                   1

2 0
 s    8 1.00
                  9046  0.00069961741342552
                  1357  0.0053860546299287
                 309.3   0.027391021189057
                 87.73    0.10315059198201
                 28.56    0.27857066331743
                 10.21    0.44829484945412
                 3.838    0.27808592839527
                0.7466   0.015431561233271
 s    8 1.00
                  9046  -0.00030499009595337
                  1357  -0.0024080263785077
                 309.3   -0.01194444872518
                 87.73  -0.048925992909017
                 28.56   -0.13447272472496
                 10.21   -0.31511257770011
                 3.838   -0.24285783254964
                0.7466     1.0943822068542
 s    1 1.00
                0.2248                   1
 s    1 1.00
               0.06124                   1
 p    3 1.00
                 13.55   0.058905676772132
                 2.917    0.32046110671427
                0.7973    0.75304206179207
 p    1 1.00
                0.2185                   1
 p    1 1.00
               0.05611                   1
 d    1 1.00
                 0.817                   1
 d    1 1.00
                  0.23                   1

3 0
 s    3 1.00
                 13.01   0.033498726389998
                 1.962    0.23480080117413
                0.4446     0.8136829578829
 s    1 1.00
                 0.122                   1
 s    1 1.00
               0.02974                   1
 p    1 1.00
                 0.727                   1
 p    1 1.00
                 0.141                   1

[5d]
[7f]
[9g]

[MO]
 Sym= A
 Ene=               0
 Spin= Alpha
 Occup=    1.00000
   1    -0.00088803076325387
   2    -0.015602511521019
   3    -0.036684015825906
   4    -0.028966629052991
   5      0.49995672913507
   6    -1.9985606987597e-16
   7     -0.08670409552981
   8      0.39498860803459
   9    -1.4221125169598e-16
  10    -0.060997619209609
  11      0.08702925874265
  12    8.0298694141708e-16
  13    -0.0096818395151973
  14    -0.002536876026174
  15    -0.0011164058430462
  16    8.1112255776343e-17
  17    -0.00046802180200032
  18    3.1114052242411e-17
  19    0.0002780585984402
  20    -0.011982423883864
  21    -1.3179015562206e-16
  22    -0.004035905562886
  23    -1.431913358511e-16
  24    0.0023850125926117
  25      0.12259433712099
  26      0.28260073020939
  27      0.13074043602322
  28     -0.38949450491985
  29    -8.1850454114937e-17
  30     -0.03885992846674
  31     -0.27832238225729
  32    -1.0510086048505e-16
  33    -0.0021480568411127
  34    -0.050889976414403
  35    -1.0914543176689e-15
  36    -0.0032586268496456
  37    -0.010461252402883
  38     0.024265146095688
  39    -5.4365093850485e-17
  40    -0.010143924760671
  41    8.4653370276303e-17
  42     0.013256023559985
  43    0.00099001295395823
  44    -1.6856855129943e-16
  45    -0.0075072789831493
  46    -2.1058479485814e-16
  47     -0.26673507199681
  48     -0.14026005524617
  49    -0.024055096987894
  50     0.010891258322121
  51    3.3019734467463e-17
  52    -0.014671831451951
  53    -0.0073368631975526
  54    1.0465056826493e-16
  55     0.019142971489174
 Sym= A
 Ene=               1
 Spin= Alpha
 Occup=    1.00000
   1    4.8068574369595e-17
   2    -8.4373079771103e-15
   3    -2.8394268668114e-14
   4    -4.3235950016695e-14
   5    -1.4880611181134e-14
   6      0.46121976843488
   7    -3.8288985082823e-14
   8    -7.2310982428615e-15
   9      0.32974340462069
  10    -1.243300696989e-14
  11    2.7289547135302e-15
  12     0.030802567338183
  13    7.2793510359384e-15
  14    1.5495326424796e-15
  15    1.2757951399284e-15
  16    -0.026824120160976
  17    1.7159178466997e-16
  18    -0.0071124454579522
  19    -5.1041018297775e-16
  20    8.0866256791783e-16
  21    -0.038877470563028
  22    -5.895186193155e-17
  23    -0.0090210235614491
  24    6.5664070332438e-17
  25    2.6181675323428e-15
  26    4.9571929706675e-15
  27    3.7643412365238e-14
  28    -2.656976230136e-15
  29      0.36554341648903
  30    3.5948057581121e-14
  31    3.6092185723764e-15
  32      0.21781160050653
  33    2.4975413148089e-14
  34    5.1294973213606e-15
  35     0.017054177082774
  36    1.0247595044854e-14
  37    2.8290473262107e-15
  38    2.5468421178777e-15
  39     0.037460083469865
  40    -5.9212078966029e-16
  41     0.019463655437898
  42    1.9523606477461e-15
  43    3.6299559226856e-15
  44    -0.0022756620392066
  45    1.515720196453e-15
  46     0.013052508618961
  47    -1.6843086187198e-14
  48    -4.0540838985796e-15
  49    -4.6617470080455e-15
  50    1.3403518212798e-15
  51    0.0098714669262827
  52    -7.358284939741e-16
  53    -2.149468459495e-15
  54    -0.0027623694064091
  55    -3.8198603449955e-16
 Sym= A
 Ene=               2
 Spin= Alpha
 Occup=    1.00000
   1    0.0005328434067674
   2     0.047917858303499
   3     0.068581041241654
   4     0.010426346915312
   5      -0.3784347582893
   6    3.706137333036e-15
   7      0.26832604768566
   8     -0.23829371298965
   9    3.4252348853422e-15
  10      0.17265683731578
  11    -0.011247287001718
  12    1.0657409169673e-15
  13    0.0093950258426112
  14    -0.014726231683962
  15      0.01323852421077
  16    -1.431846882352e-16
  17    0.0045423020672026
  18    -6.8873132106454e-17
  19    -0.017134764926413
  20     0.015492255247137
  21    -9.5010145484912e-16
  22    0.0017769066881468
  23    -1.219816292829e-16
  24    0.0033382757412658
  25     0.094792185757348
  26      0.18543060025084
  27     0.010405558869488
  28     -0.39197283358405
  29    2.8345206997507e-15
  30    -0.078472216467808
  31     -0.17923185987286
  32    6.8354233132422e-16
  33    -0.049136769810729
  34    -0.016128909645324
  35    -4.430114429143e-16
  36    0.00044435307128239
  37     0.010109633962223
  38    -0.024021800435088
  39    3.0262799421792e-16
  40    -0.019040959976342
  41    1.6887561015179e-16
  42    -0.0030549996657143
  43    0.0060823057319574
  44    -6.0760015388939e-16
  45    -0.00088717921069832
  46    -2.5292294671578e-16
  47     -0.12775959414238
  48    0.0046748905391533
  49    0.0037846441027021
  50    0.0073124634073372
  51    1.1926331884038e-16
  52    -0.013147479409818
  53    -0.0082117883859326
  54    1.6349491960012e-16
  55    0.0033388342730511
 Sym= A
 Ene=               3
 Spin= Alpha
 Occup=    1.00000
   1    0.0057806048950038
   2     0.076826109569191
   3      0.16542316427314
   4     0.064500414358995
   5      0.21360277821409
   6    3.9375998438349e-14
   7      0.43708442395102
   8      0.12714114516377
   9    2.8711554027345e-14
  10       0.2449485830883
  11    -0.0058505248451149
  12    2.2053347595305e-15
  13     0.002028982493748
  14     -0.01951480974041
  15    -0.017109136762946
  16    -2.2804521851629e-15
  17    -0.0019228707601563
  18    -6.0730547102779e-16
  19    -0.014956943905512
  20    -0.017945921804029
  21    -3.5249499510524e-15
  22    -0.0014938700310129
  23    -8.6580451838759e-16
  24    -0.0052487487949408
  25    -0.098392020197774
  26    0.00082292768436777
  27    -0.013094543091325
  28     0.050946559504795
  29    3.0810093219836e-14
  30     -0.40740423859607
  31     0.013815412723333
  32    1.8152725499694e-14
  33     -0.12936802927109
  34    0.0023954474078779
  35    1.3500207821562e-15
  36    -0.009106427814548
  37     -0.03213351153436
  38    -0.026656110507593
  39    3.1649463554737e-15
  40    0.0065776650771161
  41    1.6787746642161e-15
  42    0.0099865222203049
  43    -0.007984945487295
  44    -5.7294605094266e-16
  45    -0.0060617367284071
  46     9.32278063985e-16
  47       0.1917546305126
  48     0.063598377887284
  49    0.0022894785344341
  50    -0.015243455433867
  51    8.6317248708338e-16
  52    0.0050343229021778
  53    -0.0045750874734401
  54    -1.5327167688055e-16
  55     0.012270762786353
 Sym= A
 Ene=               4
 Spin= Alpha
 Occup=    1.00000
   1    -0.00074914867546924
   2      0.31201071141885
   3      0.44054337281989
   4     0.066215079372574
   5      0.05638113909679
   6    -2.3456542285407e-15
   7     0.088500356553567
   8     0.022781792272437
   9    -2.2951142642515e-16
  10    0.0068270847748642
  11    0.0030884238232164
  12    -4.096312569612e-16
  13    -0.0067840928720305
  14    -0.0057918611090085
  15    -0.0020491798482902
  16    2.2824155904219e-16
  17    0.0010871916819063
  18    1.0724444168665e-16
  19    -0.0017530640090557
  20     0.002051296121103
  21    -5.1310984317453e-16
  22     0.001004521237798
  23    -2.5566547402763e-16
  24    -0.0064927842892578
  25     -0.32619935508361
  26     -0.39234164472632
  27    -0.049237873280804
  28    -0.020292836836191
  29    -1.6772584202353e-15
  30      0.20682426427596
  31     0.011679875747175
  32    -2.2751099610083e-15
  33     0.023064471024797
  34    -0.0031379434479126
  35    3.9696476314441e-16
  36    -0.0069026036343976
  37     0.011853028391477
  38     0.019364211169736
  39    -1.8198131370903e-16
  40    -0.006215931314643
  41    -1.3818558229115e-16
  42    -0.019760862031347
  43    -0.017698372783408
  44    -8.9532895689292e-16
  45    0.0092931237632402
  46    -3.4222367540381e-16
  47     -0.24379404078956
  48    -0.023875132714328
  49    0.0011699066083963
  50     0.027816580496908
  51    1.8827831023284e-17
  52    -0.014790871775318
  53    -0.0045905517270748
  54    -9.8800189215529e-17
  55    0.0021377156796564
 Sym= A
 Ene=               5
 Spin= Alpha
 Occup=    1.00000
   1    -0.011680675245417
   2      0.35670391628635
   3      0.40466294577889
   4     0.036745048303346
   5    0.0095990076570373
   6    5.2900413068209e-15
   7    -0.066959589712472
   8     0.008373131899616
   9    2.9421044770458e-15
  10    -0.048526119044094
  11    0.00076160359639705
  12    4.7148690353237e-16
  13    0.0041473739143737
  14     0.013567820055765
  15    0.0046947469455086
  16    -3.1215356227499e-16
  17    -4.0915807161762e-05
  18    -1.0772567266094e-16
  19     0.014021594678189
  20    0.0016835368941857
  21    -2.3045474804115e-16
  22    0.0013555004981825
  23    7.6243741996862e-17
  24    0.0050679834407415
  25      0.29818534866203
  26      0.14573986554743
  27    -0.0035307289005944
  28     0.085070534858238
  29    4.0298396664843e-15
  30     0.045529445599452
  31    -0.0059304100538158
  32    3.0442167039974e-15
  33    -0.050220974342804
  34     0.002432918021799
  35    3.2550519714773e-17
  36    -0.0089698154668874
  37      0.01638719095216
  38     0.010764802541084
  39    4.5542279397433e-16
  40    0.0046036370227066
  41    1.6585086951388e-16
  42    -0.0087597024794948
  43    -0.00017401492283075
  44    4.1283946024576e-16
  45    -0.010350872677451
  46    3.7862781798982e-16
  47      0.14681675591325
  48    -0.011740499332722
  49    -0.00075303904184828
  50     -0.02013657095648
  51    1.3322305115757e-16
  52     0.014594099599264
  53     0.011221735475726
  54    -2.1811181062423e-16
  55    -0.0075725454510995
 Sym= A
 Ene=               6
 Spin= Alpha
 Occup=    1.00000
   1       1.0011160447433
   2    0.0036164791523987
   3    -0.015844020876548
   4    -0.0051094484630559
   5    -0.00093461021494365
   6    1.4998549477407e-16
   7    -0.002757752594787
   8    0.0017959155641879
   9    -1.7187477091381e-16
  10     0.007479702519881
  11    0.00032815352031449
  12    -1.8837558792507e-16
  13    0.00080177852710458
  14    0.00032852725258803
  15    9.6063718164812e-05
  16    -3.283065205619e-17
  17    0.00030954696737781
  18    -3.8132031218111e-17
  19    -0.0017964267536885
  20    -0.00085341423338588
  21    2.2889193470179e-16
  22    -0.0001255506189784
  23    3.8304339953672e-17
  24     0.043474630760844
  25    0.00040366501767612
  26     0.011127405821082
  27    0.0032897265238647
  28    0.00032534600170428
  29    9.8756417637675e-17
  30    0.0013969214713085
  31     0.002283298182136
  32    3.4611406917808e-16
  33     0.008789750824668
  34    4.7132993661105e-05
  35    9.470919356872e-17
  36    0.0010778659931906
  37    -0.00011277907707205
  38    -0.00013939045837725
  39    9.7274933365079e-18
  40    1.5098307692652e-05
  41    4.0188532397487e-18
  42    0.0020911683051042
  43     0.001575133882671
  44    1.9941850893686e-16
  45    0.00027154963758962
  46    9.7633582734207e-17
  47    -0.00044973038457178
  48    0.0016696279346253
  49    -0.00012935717229054
  50    0.0001485045557763
  51    -4.5835027574501e-18
  52    -0.00024195448325751
  53    -0.00070965906441964
  54    -2.8849518676932e-17
  55    0.00017344339352756
 Sym= A
 Ene=               7
 Spin= Alpha
 Occup=    1.00000
   1    -0.043198858222521
   2    -0.0016566660372266
   3    -0.003511872114806
   4    -0.0014740368880544
   5    0.00030558376358147
   6    2.375168239901e-16
   7       0.0013512860761
   8    0.00079566401301771
   9    -2.532896389271e-15
  10    0.0026837483467176
  11    3.3525179934612e-05
  12    -1.9689200185857e-15
  13    0.00029580419939763
  14    -0.00045121606310336
  15    -0.00017337374571507
  16    -7.7856578632125e-16
  17    -5.4917122816007e-05
  18    -2.5214565132808e-16
  19    -0.0011937360559917
  20    -0.00066282336562435
  21    2.9125047615214e-15
  22    -0.00018620817417411
  23    6.9818805264471e-16
  24       1.0007634366169
  25    -0.0014946970840768
  26    -0.0086033328801171
  27    -0.0018879361869386
  28    0.0015019134617265
  29    2.2879901105295e-16
  30    0.0013134708763205
  31    -0.0020898840949678
  32    3.6759282226352e-15
  33    0.0018639776918677
  34    -0.00065475922370311
  35    1.5606109255061e-15
  36    0.00061580938561685
  37    0.00047245914775739
  38    4.6382659029226e-05
  39    1.7345275608921e-16
  40    0.00049984370266451
  41    5.9013521875903e-17
  42    -0.00028408093207088
  43    -9.8952281395503e-06
  44     2.39685871218e-15
  45    -0.00021887913846252
  46    1.1121741409534e-15
  47    -0.0017514043696788
  48    0.0060371271766159
  49    0.00062465343906013
  50    0.00076524378054643
  51    -1.1526618812827e-16
  52    -0.00049906869977789
  53    -0.0020510888921128
  54    -3.8972055048378e-16
  55     0.001637069700764
 Sym= A
 Ene=               8
 Spin= Alpha
 Occup=    0.00000
   1    0.0056131093726814
   2        0.135746222523
   3      0.55932874215075
   4       3.0330096167543
   5    -0.029860175305682
   6    -1.1607439029162e-14
   7    -0.054813117045338
   8     -0.05993498150129
   9    -5.5139030730444e-15
  10     -0.31622365665037
  11      -0.2979141361374
  12    2.1618190863111e-14
  13     -0.86925917035747
  14    -0.0014631159061918
  15    0.0012741112264646
  16    1.5957708852083e-15
  17    -0.0042877740115421
  18    7.1491030022518e-16
  19     0.055053005768674
  20     0.019629371499796
  21    -1.3013941649557e-15
  22    0.0052549465904901
  23    -1.064440489923e-15
  24    0.0045439008714882
  25      -0.0511408736819
  26     -0.47526894761855
  27      -3.1175194411204
  28    -0.095563474239068
  29    -2.6097643650472e-14
  30    -0.050824486785154
  31     -0.16274174311666
  32    -3.2218468598619e-14
  33      -0.4604907305273
  34     -0.21884856422853
  35    1.2134126148273e-13
  36       -1.710073683427
  37     0.019823433392071
  38    0.0071841967580141
  39    -1.5245198065606e-15
  40    -0.00098246397789772
  41    -1.9708961434898e-15
  42    -0.050874348836775
  43    -0.055147654970657
  44    -6.6654726543847e-15
  45    -0.00090027698227776
  46    4.9912524317322e-15
  47    -0.001785617908942
  48     -0.14471820356421
  49      0.23105257385048
  50    -0.00058726307694457
  51    9.6042392111909e-16
  52    -0.011203130885854
  53     0.071738173181447
  54    -1.1283073196003e-14
  55     -0.11576094303168
 Sym= A
 Ene=               9
 Spin= Alpha
 Occup=    0.00000
   1    1.2186923862724e-15
   2    5.6265427102369e-15
   3    -3.7961469604006e-16
   4    -2.1487800659808e-14
   5    -5.5654267657196e-15
   6     -0.43662020531804
   7    -8.1096686912274e-15
   8    -3.8845422240616e-17
   9     -0.42172608520448
  10    -6.6979100883696e-15
  11    2.4652129718904e-14
  12     -0.22199982613859
  13    3.5613106262201e-14
  14    1.1090441482717e-15
  15    -8.7790357843411e-16
  16    -0.0099695099465705
  17    7.8180822513947e-16
  18     0.015720196057802
  19    -1.8012145159641e-16
  20    3.3509042144431e-15
  21    0.0017788784336705
  22    -1.1241017451046e-15
  23     0.013098717468717
  24    -1.552279970367e-15
  25    -6.3236652208966e-15
  26    -7.3638994140361e-15
  27    4.2911073754368e-15
  28    3.8165709942892e-15
  29      0.51251227320494
  30    -5.9494880877429e-15
  31    -1.3254868122913e-14
  32      0.47186451191579
  33    -3.2922894372698e-15
  34    -4.7898106336084e-14
  35      0.20848099066242
  36    -4.715301510614e-15
  37    -1.4470488854418e-15
  38    -3.4507913184259e-17
  39     -0.01662437833436
  40    2.3033976708989e-15
  41     0.022110547432588
  42    1.2047643147883e-14
  43    6.6670818100801e-15
  44    0.0025623489895977
  45    -4.1142145195941e-15
  46     0.023068772277087
  47    4.6987493971336e-15
  48    4.8444583350708e-14
  49    -1.9183477032664e-15
  50    9.1813329968663e-16
  51     0.019515315461755
  52    -1.52906040612e-15
  53    8.9114924394577e-15
  54     0.022874104565505
  55    1.7891275272209e-14
 Sym= A
 Ene=              10
 Spin= Alpha
 Occup=    0.00000
   1     0.052386434993795
   2       0.1823063466826
   3      0.37256583685153
   4      -1.2597857974162
   5    -0.068666049315949
   6    -2.4475562094525e-14
   7      0.21897117535727
   8     0.046488782420543
   9    -1.1713066052565e-14
  10      0.17021453414832
  11      0.20995070530009
  12    1.454966212364e-13
  13     -0.56610388733251
  14    0.00045648061494924
  15     0.016370690702165
  16    1.3040180746342e-15
  17    -0.028236988751791
  18    2.127187912585e-15
  19    -0.011401255999953
  20     0.014331970816144
  21    7.1703930527027e-16
  22    -0.015728698292406
  23    -3.7198721276466e-15
  24     0.037614672718492
  25      0.18786600357079
  26      0.39900776380863
  27       0.4497365279024
  28      0.17759803740103
  29    3.4189664887349e-14
  30    -0.098587733860938
  31     0.041845785421417
  32    -5.4588790606877e-15
  33     -0.13594545862028
  34    -0.066947683164089
  35    -1.3754793077598e-13
  36      0.70092686561191
  37    -0.036522840137679
  38    -0.018337534585249
  39    -6.6484378651907e-15
  40    -0.022128654763412
  41    -3.1661637209508e-15
  42     -0.21116077799361
  43    -0.076043492918473
  44    -8.3977989244218e-16
  45    -0.026197548986168
  46    3.5889174702741e-15
  47    -0.051097623284714
  48     -0.50031373300146
  49     -0.28918122282238
  50    -0.016027541716749
  51    2.325474698287e-15
  52     0.022674833775209
  53      0.11128887000336
  54    -4.0950886619211e-15
  55     0.042419408915682
 Sym= A
 Ene=              11
 Spin= Alpha
 Occup=    0.00000
   1     -0.04067013913261
   2     -0.25637477993609
   3     -0.67085522119064
   4      0.48480921885425
   5      0.18355655654763
   6    3.1596593482242e-14
   7      0.60962792578316
   8      0.11131277003477
   9    -3.2916917124971e-15
  10      0.36952520062642
  11      0.20547119650696
  12    -1.592117963173e-13
  13    -0.083721317512941
  14    -0.015940800686429
  15     0.089611855529627
  16    -5.6422286511533e-16
  17     0.035925069462423
  18    6.6685531901683e-15
  19     0.060817641399834
  20     0.046830875328538
  21    -1.1911947492542e-14
  22    0.0068059221890739
  23    -5.3156803614384e-15
  24     0.030624534582727
  25      0.26558960113744
  26      0.69200008871558
  27     -0.74497201828508
  28     0.050348776164215
  29    -1.3551967018679e-14
  30      0.60760669180144
  31      0.15718599596542
  32    -2.1797591936006e-14
  33      0.70825551692279
  34    -0.075419288062217
  35    2.1254565055934e-13
  36     -0.27534627811072
  37     0.021505033095091
  38    -0.048597116442323
  39    2.8324241426711e-15
  40    0.0030721080510889
  41    -6.2243009695987e-15
  42      0.01963077110748
  43     0.044738246389258
  44    -1.6555566580826e-14
  45     0.021373773261973
  46    1.2208735598741e-14
  47    0.0065776360649009
  48       0.1675480560586
  49      0.15111675282703
  50     0.020095330416723
  51    -8.725084929819e-15
  52     0.023056171616511
  53    -0.034878584374886
  54    -1.1523459475754e-14
  55     -0.30252177545565
 Sym= A
 Ene=              12
 Spin= Alpha
 Occup=    0.00000
   1     0.071266468085243
   2      0.20236037874997
   3     -0.19557134482727
   4      -1.8043384747883
   5     -0.14963679909003
   6    5.3830392129381e-14
   7     0.043250286229528
   8     -0.55889617581339
   9    2.452990124231e-14
  10    -0.059165107490772
  11       1.0743731495795
  12    -1.5162460155168e-13
  13      0.91579503259296
  14     0.005954310752795
  15     0.050960346082881
  16    -4.9940481314191e-15
  17     0.036066795485047
  18    -3.5494520962901e-15
  19    0.0029376574158511
  20      0.16810586637622
  21    6.144794611078e-15
  22     0.017884459202629
  23    -2.1699400213231e-14
  24    -0.020201409846483
  25    -0.034821902659981
  26     -0.34553745076732
  27       2.1597446209165
  28     -0.19906937911127
  29    -2.7432958671672e-14
  30     0.023235133825429
  31      0.22046123071426
  32    1.0770161415376e-14
  33     -0.17907185328311
  34     0.083360774823422
  35    7.5347517662654e-14
  36     0.094272000298682
  37    0.0038234935724203
  38    0.0025799565857253
  39    -2.1857949723363e-14
  40     0.018157794524371
  41    4.3993872878059e-14
  42      0.14808200792481
  43      0.30268290958611
  44    -1.4796091977302e-14
  45     0.095532286009645
  46    -7.1809514070774e-14
  47      0.11049977618603
  48       0.0485458195341
  49     -0.32035577450964
  50    0.0096402190408263
  51    9.9656510343108e-15
  52     0.006114561596548
  53     -0.29344930700926
  54    1.1964627133476e-14
  55      0.70918302446297
 Sym= A
 Ene=              13
 Spin= Alpha
 Occup=    0.00000
   1      0.21508071198055
   2      0.59974527191191
   3      0.46009971334066
   4      -1.9043279657286
   5    -0.069654067946778
   6    1.5574962519322e-15
   7    -0.057942305958217
   8      0.11083745164719
   9    -4.0452554260313e-14
  10     -0.39502371223894
  11      0.88666182288037
  12    -8.8839411804159e-14
  13      0.15249057540035
  14      0.13592203677518
  15     -0.12636673412432
  16    -1.9273386404065e-14
  17     0.078931082425405
  18    3.3271154076929e-14
  19      0.31989100130273
  20    -0.032570955494532
  21    1.7855239803734e-14
  22     0.092568572605297
  23    -2.4125432625123e-14
  24     -0.12416669656724
  25     -0.30194325353962
  26      0.17630176005262
  27        1.296771572622
  28    -0.014024035566322
  29    -3.0194122402999e-14
  30      -0.2279425284092
  31     -0.31674986294179
  32    4.0048942697734e-14
  33    -0.039580960659166
  34     -0.16568096818915
  35    -2.7284467477222e-14
  36       1.2777148486404
  37     -0.13999733071646
  38      0.12762105288655
  39    -1.9082819188638e-14
  40    -0.038701202198675
  41    2.852759354842e-14
  42     -0.50886128071128
  43     -0.45562453035524
  44    8.1893772101656e-14
  45     -0.15009348531964
  46    3.2817763818279e-14
  47     -0.18707966590782
  48       0.2056548162166
  49       0.1489333711287
  50    -0.0067036402095803
  51    -5.0439683331261e-14
  52    -0.035983307511026
  53    0.00045764103938357
  54    1.2956825007716e-13
  55     -0.94964061188534
 Sym= A
 Ene=              14
 Spin= Alpha
 Occup=    0.00000
   1      0.14082773211346
   2      0.26018625991793
   3      -1.0112750411387
   4      -0.6024115036186
   5     -0.96940283951256
   6    -4.7482060004928e-13
   7      0.10666355883225
   8       2.4341917702247
   9    7.5482479923179e-13
  10       0.1410896294923
  11     -0.52071758861432
  12    -2.1519210271945e-13
  13      0.35388454978163
  14      -0.1481045375508
  15     0.080572382416446
  16    -4.1503964645776e-15
  17      -0.2002192427742
  18    3.2792792336096e-13
  19      0.12667623187385
  20      -0.7442118017967
  21    -2.1224580995572e-13
  22     -0.18734664030468
  23    -1.8611599808267e-13
  24     0.065853946623176
  25      0.16008436858067
  26       1.2386593518004
  27      0.91152151027982
  28     0.017003463215241
  29    -1.0480421917081e-13
  30      0.18112601090886
  31     -0.91364091637806
  32    -2.7146866646994e-13
  33      0.68969142112322
  34      0.40512691498593
  35    7.659817785639e-13
  36      -0.2155225931105
  37     -0.08705865854557
  38    -0.039641502899951
  39    5.1663703048671e-14
  40     0.053935132474849
  41    5.662418747412e-14
  42      0.67905917399831
  43     -0.67689010709172
  44    -2.3807068612763e-13
  45     -0.31218820340557
  46    -5.0566834833741e-14
  47      0.03201025067446
  48     -0.60566419803495
  49      -0.1127163244972
  50      0.12670262003651
  51     4.83249087835e-14
  52     0.053888655744107
  53      0.33932396917814
  54    -5.3421739823197e-13
  55     0.069669710274296
 Sym= A
 Ene=              15
 Spin= Alpha
 Occup=    0.00000
   1     -0.21648471952752
   2     -0.40444015273545
   3       1.9057588879878
   4       1.9421077427099
   5     0.051725379944197
   6    -3.1266472887879e-13
   7      0.22567818879292
   8     -0.96744704479303
   9    -7.9775331191664e-13
  10      -1.2237591371491
  11     0.070966513053821
  12    1.0615348628123e-12
  13     -0.92036431527109
  14     -0.16220699971044
  15    -0.047440995255773
  16    1.1334531569574e-13
  17    0.0092408813493524
  18    -1.6545207308712e-13
  19       0.3432851194335
  20      0.34608187708478
  21    7.9590831589636e-14
  22      0.10149574714164
  23    -9.5324894375957e-14
  24     0.060496520068271
  25      0.16640847358162
  26      -1.9373319297691
  27      -1.0184433871784
  28     -0.56130230143192
  29    -5.1261370617715e-13
  30    -0.022431454986768
  31      0.77032372199714
  32    3.7796839240399e-14
  33      -1.4325893076074
  34     -0.34576316917617
  35    -8.9999422277567e-13
  36      0.24190103967718
  37    -0.010170905190271
  38      0.35229276576547
  39    4.9890727282617e-13
  40      0.69872104778213
  41    -5.126445078397e-13
  42     -0.63248607551614
  43      0.17006265397344
  44    6.8275346705661e-13
  45     0.014937283326707
  46    7.2615842262632e-13
  47    -0.089927579706784
  48     -0.76883917911776
  49     0.021778368328988
  50     -0.31155214095706
  51    9.6516449833037e-14
  52       0.3274318139542
  53      0.22288434009585
  54    1.5233613225754e-12
  55     -0.98273864015748
 Sym= A
 Ene=              16
 Spin= Alpha
 Occup=    0.00000
   1    -0.0021709359335086
   2    0.0012577070541624
   3      0.12123074187213
   4     0.083495517946006
   5    0.0054537518411433
   6     -0.16670473292432
   7    -0.0054750583388818
   8    -0.00096999157861828
   9     -0.31056916127512
  10    -0.055605350102893
  11    -0.050311412961056
  12       2.0954024986584
  13      0.17278903358289
  14    0.0039378530016058
  15    -0.0070363287886147
  16     0.016872911907036
  17    -0.00067810100476642
  18    0.0014974849768254
  19     0.005772465213875
  20    -0.0020401784436299
  21    -0.075711799344946
  22    -9.0523135105712e-05
  23    -0.018521258884707
  24    0.0044731410939202
  25     0.023985846408119
  26    -0.024082715501679
  27     -0.25300625408073
  28     0.020391708960964
  29     0.062886017628249
  30    -0.027041304538189
  31    -0.040597390959627
  32     0.012425200320048
  33    -0.042262681966662
  34     0.011865205804212
  35      -1.7160404327044
  36     -0.11042839553405
  37    -0.0027397538783932
  38     0.011998776616099
  39    -0.00035633941716315
  40    0.0092155780217769
  41    0.0050047602285274
  42    -0.061661287202229
  43    -0.034506794890866
  44     -0.11203020706355
  45    -0.011161399627286
  46    -0.059178681152479
  47    -0.022999660418557
  48     0.093688194837954
  49     0.061714524156491
  50    -0.012499468339739
  51    0.00048953105601802
  52    0.0067121924011139
  53     -0.05951640336821
  54      0.14257374507523
  55    0.0024364712844726
 Sym= A
 Ene=              17
 Spin= Alpha
 Occup=    0.00000