[Molden Format]
made by pyscf v[2.13.1]
[Atoms] (AU)
O   1   8     0.21099695469856     0.00000000000000     2.15462460678861
N   2   7    -0.44776862100326     0.00000000000000    -0.03589262653049
H   3   1     1.18163474748449     0.00000000000000    -1.17386889907833
[GTO]
1 0
 s    8 1.00
                 11720  0.00070964594651845
                  1759  0.0054672722921914
                 400.8   0.027823118610189
                 113.7    0.10474773971146
                 37.03    0.28292084635691
                 13.27    0.44849523869833
                 5.025    0.27081688521277
                 1.013    0.01545029160744
 s    8 1.00
                 11720  -0.00031444341168873
                  1759  -0.0024821376810179
                 400.8  -0.012316355381583
                 113.7  -0.050538917343672
                 37.03   -0.13938490331632
                 13.27   -0.32507749481778
                 5.025   -0.22984830758785
                 1.013     1.0953793467883
 s    1 1.00
                0.3023                   1
 s    1 1.00
               0.07896                   1
 p    3 1.00
                  17.7   0.062679166281506
                 3.854    0.33353656587936
                 1.046    0.74123964163973
 p    1 1.00
                0.2753                   1
 p    1 1.00
               0.06856                   1
 d    1 1.00
                 1.185                   1
 d    1 1.00
                 0.332                   1

2 0
 s    8 1.00
                  9046  0.00069961741342552
                  1357  0.0053860546299287
                 309.3   0.027391021189057
                 87.73    0.10315059198201
                 28.56    0.27857066331743
                 10.21    0.44829484945412
                 3.838    0.27808592839527
                0.7466   0.015431561233271
 s    8 1.00
                  9046  -0.00030499009595337
                  1357  -0.0024080263785077
                 309.3   -0.01194444872518
                 87.73  -0.048925992909017
                 28.56   -0.13447272472496
                 10.21   -0.31511257770011
                 3.838   -0.24285783254964
                0.7466     1.0943822068542
 s    1 1.00
                0.2248                   1
 s    1 1.00
               0.06124                   1
 p    3 1.00
                 13.55   0.058905676772132
                 2.917    0.32046110671427
                0.7973    0.75304206179207
 p    1 1.00
                0.2185                   1
 p    1 1.00
               0.05611                   1
 d    1 1.00
                 0.817                   1
 d    1 1.00
                  0.23                   1

3 0
 s    3 1.00
                 13.01   0.033498726389998
                 1.962    0.23480080117413
                0.4446     0.8136829578829
 s    1 1.00
                 0.122                   1
 s    1 1.00
               0.02974                   1
 p    1 1.00
                 0.727                   1
 p    1 1.00
                 0.141                   1

[5d]
[7f]
[9g]

[MO]
 Sym= A
 Ene=               0
 Spin= Alpha
 Occup=    1.00000
   1    -0.00098888091904289
   2    -0.011972296929039
   3    -0.032100288176784
   4    -0.028381129342661
   5      0.51546991419313
   6    -9.6413988276789e-15
   7    -0.096634004307937
   8      0.40454950115924
   9    -6.9110685253655e-15
  10    -0.067999799547472
  11     0.087442029238619
  12    1.3650256197933e-16
  13    -0.010106172854294
  14    -0.0019418834203389
  15    -0.0016498758296727
  16    6.2831400854635e-16
  17    -0.00063821016590287
  18    1.7784442411205e-16
  19    0.0010175651085147
  20    -0.012565795760972
  21    6.8263059580535e-16
  22    -0.0040851716191771
  23    4.1036687743562e-17
  24    0.0021735638058654
  25      0.11648974903995
  26      0.27115429199549
  27      0.12961542329673
  28     -0.37316770869857
  29    -7.5596354154673e-15
  30    -0.033141806310093
  31     -0.27076921522753
  32    -4.5317751310622e-15
  33    -0.00020866151669546
  34     -0.05021943654938
  35    -1.4116626617624e-15
  36    -0.003403848925012
  37    -0.010641068599338
  38     0.025483372467197
  39    -8.2100956739239e-16
  40    -0.0094154636576445
  41    -3.1512557029054e-16
  42     0.013094113809906
  43    0.00053746930562732
  44    -1.0643299314168e-16
  45    -0.0074148342027257
  46    -4.6525511421609e-16
  47     -0.26334411043446
  48     -0.14064638220118
  49    -0.024175731993153
  50     0.010796965450573
  51    -1.6978159769483e-16
  52    -0.014221734540722
  53    -0.0069942353006562
  54    1.5137262788195e-16
  55     0.018978835989884
 Sym= A
 Ene=               1
 Spin= Alpha
 Occup=    1.00000
   1    0.00048939268114021
   2    -0.0074167966632159
   3    -0.013634828703739
   4    -0.0054909326547723
   5     -0.37519327822666
   6    -1.8679020729287e-13
   7      0.21801349914165
   8     -0.23051290921801
   9    -1.3303186233126e-13
  10      0.15015514883884
  11    -0.007553594533875
  12    -1.1566944999285e-14
  13     0.009731405590472
  14    -0.012466760261403
  15      0.01444710820668
  16    1.0923636443452e-14
  17    0.0044210910051412
  18    2.8595692506248e-15
  19    -0.015646519943956
  20      0.01566377914985
  21    1.5229762166181e-14
  22     0.001526856799337
  23    3.6496802779716e-15
  24    0.0040639227679289
  25      0.15346873079587
  26      0.25332876276332
  27     0.024042077841282
  28     -0.40300694709053
  29    -1.4814026458529e-13
  30    -0.082928200030783
  31     -0.19078734543582
  32    -8.9060503252755e-14
  33    -0.043045478318536
  34    -0.017692272726285
  35    -7.5897693761368e-15
  36    0.0020024881470722
  37    0.0098370419210488
  38    -0.023840359318042
  39    -1.5170265443259e-14
  40    -0.018699374252402
  41    -7.8614863268148e-15
  42    -0.00010147913391341
  43     0.009261744348033
  44    4.9405623397587e-16
  45    -0.0021443033888339
  46    -5.5945671193448e-15
  47     -0.11345935423887
  48    -0.0018381300569075
  49    0.0024027074655995
  50    0.0045431050261968
  51    -3.9688322173575e-15
  52    -0.011713192667562
  53    -0.0074307774442782
  54    1.3184969280651e-15
  55    0.0029559461026698
 Sym= A
 Ene=               2
 Spin= Alpha
 Occup=    1.00000
   1    0.0012083115876481
   2      0.13094966305838
   3      0.17464710575557
   4    0.0093824382261256
   5     -0.11084645875792
   6    -2.034377299839e-12
   7     -0.13750365796389
   8    -0.076636734700724
   9    -1.4533778624553e-12
  10     -0.10669141804623
  11    0.0042397443792195
  12    -1.3579629008342e-13
  13    -0.0066034159432849
  14    0.0021685013380074
  15    0.0080488202679325
  16    1.1838955879712e-13
  17    0.0023314665584483
  18    3.1432349129006e-14
  19    0.0025007218625621
  20     0.012665103344048
  21    1.7094340533124e-13
  22    0.0015050393746721
  23    3.9564011382208e-14
  24    -0.00015929198720268
  25     -0.26167048170885
  26     -0.32975107246806
  27    -0.030717263070385
  28    -0.094098276425958
  29    -1.6119678729663e-12
  30      0.37647427557503
  31    -0.010827636976507
  32    -9.6161340493661e-13
  33     0.097782288044256
  34    -0.0054801632343467
  35    -7.4783244305503e-14
  36    0.0016382519739426
  37     0.024748340373863
  38     0.025872164554039
  39    -1.652108269249e-13
  40      -0.0111675473644
  41    -8.5878968242907e-14
  42    -0.019694056407389
  43    -0.009036083255183
  44    9.3927714824066e-15
  45     0.013000330406321
  46    -5.7765314682801e-14
  47      -0.3426536840194
  48    -0.051024046033986
  49    0.00023463140021846
  50     0.035599703960817
  51    -4.3499870792575e-14
  52    -0.018786207903746
  53    -0.0041871531568994
  54    1.2103014760725e-14
  55    -0.0033346897485401
 Sym= A
 Ene=               3
 Spin= Alpha
 Occup=    1.00000
   1     0.003740302553813
   2      0.33947374699622
   3      0.49705926786942
   4      0.09851213086894
   5       0.1410547521935
   6    4.3251005946303e-11
   7      0.40317670368062
   8     0.076186155269238
   9    3.0922953389155e-11
  10      0.20124367659384
  11    -0.0042403780463682
  12    2.8882022843293e-12
  13    -2.1563168529894e-05
  14    -0.016751829497978
  15    -0.011000919897759
  16    -2.5153660586609e-12
  17    -0.00016751624765999
  18    -6.669374145632e-13
  19    -0.011181182873689
  20    -0.0096417387413469
  21    -3.6463638044934e-12
  22    7.6404207587353e-05
  23    -8.4616133054852e-13
  24    -0.0094363448536544
  25     -0.17631172353899
  26     -0.16672361486976
  27     -0.03854268872137
  28    -0.0069865106420191
  29    3.4278680879474e-11
  30     -0.18517326802639
  31    -0.0092201969981015
  32    2.0424295472183e-11
  33     -0.10387294558415
  34    -0.0015954866274333
  35    1.5993369214871e-12
  36    -0.013145027364922
  37    -0.011596588566802
  38    -0.0094768109174595
  39     3.51281563218e-12
  40    -0.00022292775842536
  41    1.825185984327e-12
  42    -0.0067896473482485
  43    -0.015591905104258
  44    -2.1419909995447e-13
  45    -0.0018640840087683
  46    1.2237071458883e-12
  47     0.021247577016544
  48     0.031939279130656
  49    0.0028240637067669
  50    0.00071962380469224
  51    9.2576654030733e-13
  52    -0.0030097154962128
  53    -0.0044305763682667
  54    -2.5906599702086e-13
  55    0.0089959035179118
 Sym= A
 Ene=               4
 Spin= Alpha
 Occup=    1.00000
   1    -3.5167611465828e-13
   2    -3.1371195849661e-11
   3    -4.5977531398634e-11
   4    -9.2420389416128e-12
   5    -1.3836949999486e-11
   6      0.46121976843488
   7    -3.825347245139e-11
   8    -7.5541966879431e-12
   9      0.32974340462069
  10    -1.922773754967e-11
  11    4.1634818475499e-13
  12     0.030802567338183
  13    -1.6835612770024e-14
  14    1.5684610685865e-12
  15    1.0694115745741e-12
  16    -0.026824120160976
  17    2.7605616013134e-14
  18    -0.0071124454579522
  19    1.0450026075982e-12
  20    9.6289678209939e-13
  21    -0.038877470563028
  22    -7.8323988148332e-16
  23    -0.0090210235614491
  24    8.5321883728831e-13
  25    1.5336401468972e-11
  26    1.4254826559549e-11
  27    3.5284491702777e-12
  28    4.3715484138059e-14
  29      0.36554341648903
  30    1.8925145535269e-11
  31    7.3928224249577e-13
  32      0.21781160050653
  33    1.0168199938795e-11
  34    1.2182354731132e-13
  35     0.017054177082774
  36    1.2519860965537e-12
  37    1.1913323931374e-12
  38    9.8678103290186e-13
  39     0.037460083469865
  40    -3.7061458716902e-14
  41     0.019463655437898
  42    5.5710786010256e-13
  43    1.4283982887192e-12
  44    -0.0022756620392066
  45    2.3459297720729e-13
  46     0.013052508618961
  47    -3.5792120946747e-12
  48    -3.2111986709786e-12
  49    -2.672980285259e-13
  50    9.6046328431629e-14
  51    0.0098714669262827
  52    1.8993529118225e-13
  53    3.8716244192725e-13
  54    -0.0027623694064091
  55    -8.5214787725728e-13
 Sym= A
 Ene=               5
 Spin= Alpha
 Occup=    1.00000
   1    0.00060500323240528
   2      0.31694226368015
   3      0.33500071000547
   4     0.014495788340606
   5    -0.058345162759374
   6    1.6356890195066e-13
   7     -0.21105671502757
   8    -0.032818848316501
   9    1.1597845475354e-13
  10     -0.12979551174464
  11    0.0024163894039064
  12    1.1149152906341e-14
  13    0.0029888153691043
  14     0.019422695729149
  15    0.0099098238201054
  16    -9.5210112962185e-15
  17    0.00056876941077254
  18    -2.5460510233897e-15
  19     0.018409079083424
  20    0.0074676551381373
  21    -1.3515368405345e-14
  22    0.0017953094142245
  23    -3.0021363386397e-15
  24    0.0080436636120703
  25      0.30385762578521
  26      0.12330291318625
  27    -0.00098856402379541
  28     0.070861383714972
  29    1.2962297561483e-13
  30      0.18573799525823
  31    -0.0055239563576545
  32    7.790463776283e-14
  33    -0.0025075229290315
  34    0.0019602386582192
  35    5.9598327160944e-15
  36    -0.0055308598780979
  37     0.026384509222243
  38     0.019751371650311
  39    1.3320918169389e-14
  40    0.0023361397679521
  41    6.8412601263016e-15
  42    -0.012065895657619
  43    0.0020147841581221
  44    -2.7283284357693e-16
  45    -0.0074344188105022
  46    4.9082510107447e-15
  47     0.071740082970666
  48     -0.03214962781406
  49    -0.0013663041531871
  50    -0.013368117001906
  51    3.5134131855324e-15
  52     0.011989244076132
  53     0.012148294715389
  54    -1.1898250335785e-15
  55    -0.011351203749842
 Sym= A
 Ene=               6
 Spin= Alpha
 Occup=    1.00000
   1     -0.26699511765425
   2    -0.00072735132461259
   3    0.0024091434488557
   4    0.00011228998051452
   5    0.00095479723806279
   6    1.2629935867713e-14
   7    0.0035905273110705
   8    0.00063036592505663
   9    6.4596034037653e-15
  10    0.0018218403208829
  11    -6.5673607038385e-05
  12    -1.046357913168e-15
  13    0.00013433276156063
  14    -0.00055641697509145
  15    -0.00022294031491912
  16    -1.4741743373972e-15
  17    -0.00012459798155821
  18    -4.289034170766e-16
  19    -0.00078489927557633
  20    -0.00049510207485777
  21    1.7375548804458e-15
  22    -0.00015170614282315
  23    4.2858567158699e-16
  24      0.96540685305201
  25    -0.0010016527774742
  26     -0.01043343886469
  27    -0.0026511911084243
  28    0.0014174174972003
  29    1.005205167355e-14
  30    -0.00027927158039365
  31    -0.0027104938142455
  32      9.3737208295e-15
  33    -0.0008197375628298
  34    -0.00065274834461475
  35    1.9578636287498e-15
  36    0.00029199187572713
  37    0.0004439735601809
  38    5.8532645049226e-06
  39    1.1765434175353e-15
  40    0.00049817239789632
  41    5.8110694778079e-16
  42    -0.00075522007588472
  43    -0.00039683048987817
  44    2.2283765336628e-15
  45    -0.00032561197533066
  46    1.4132017938683e-15
  47    -0.00073309509342173
  48    0.0056783806795968
  49    0.00064707395994509
  50    0.00061666132198457
  51    1.5502048522872e-16
  52    -0.00038902670082886
  53    -0.001829783195361
  54    -4.4793473333357e-16
  55    0.0015800154145156
 Sym= A
 Ene=               7
 Spin= Alpha
 Occup=    1.00000
   1      0.96590244722487
   2    -0.0021190921922364
   3     -0.02215140454876
   4     -0.00570463955074
   5    7.8522397629796e-05
   6    6.8218386068586e-15
   7    0.00019199337752052
   8    0.0024997962473453
   9    4.0056128315693e-15
  10    0.0096245344217865
  11    0.00029057989784736
  12    -1.8638917490549e-16
  13    0.00082744071410322
  14    -2.0966550937042e-05
  15    -8.6238417062824e-05
  16    -5.9229628084967e-16
  17    0.00027440902201771
  18    -1.9585523424616e-16
  19    -0.0022553086893466
  20    -0.0011055128807341
  21    3.1825820475465e-16
  22    -0.00019341434190104
  23    6.3062568512096e-17
  24      0.26710357496082
  25    -0.0029326126994823
  26    0.0085532345302739
  27    0.0029581244542535
  28    1.8105576732658e-05
  29    5.3956139480253e-15
  30    -0.0017069876276325
  31    0.0018852839176056
  32    4.2861902737133e-15
  33    0.0088933935812012
  34    -0.00010770432775358
  35    6.8747060651796e-16
  36    0.0012807179222105
  37    -0.00041823267769867
  38    -0.00045508536081528
  39    5.8578224050003e-16
  40    0.00013154038866223
  41    2.9759428188321e-16
  42    0.0022104464455316
  43    0.0015600741968513
  44    6.9632386285888e-16
  45    0.00027844073502166
  46    5.2976489123805e-16
  47    -0.00076515923879027
  48    0.0035199813384666
  49    2.6617214406386e-05
  50    0.00038468748292818
  51    1.1095882518984e-16
  52    -0.00044561947839015
  53    -0.0012955072080365
  54    -1.5220580402709e-16
  55    0.00068527356082141
 Sym= A
 Ene=               8
 Spin= Alpha
 Occup=    0.00000
   1    0.00098918686897586
   2    -0.019106124377036
   3    -0.045023326296252
   4      -1.5770094754336
   5     -0.02706108297616
   6    1.6515618162667e-14
   7     -0.14148285554304
   8     0.037607077511447
   9    4.3844284747463e-14
  10     -0.06037670749809
  11      0.22906902785898
  12    -5.8682518545714e-13
  13       2.0686318421095
  14     0.014389825814399
  15     0.008777140964723
  16    -6.6269375587832e-15
  17    0.0035020801622437
  18    5.6808851178613e-17
  19    -0.042604571423572
  20    -0.026130191688435
  21    1.5749324783863e-14
  22    -0.014332133868132
  23    1.2794367352648e-14
  24    -0.0043058828911735
  25    -0.030656266773495
  26      0.15120025303812
  27       3.7385166034462
  28    -0.035079149737483
  29    4.3961246873146e-14
  30      0.08581908232619
  31    -0.017453398875458
  32    7.8818440084175e-14
  33      0.14010415574578
  34      0.79515199126818
  35    3.7524744678258e-13
  36     -0.88150227279273
  37     0.026420924806203
  38      0.01467395652254
  39    3.323311443826e-15
  40    -0.001498834011753
  41    -7.9335073658875e-16
  42     0.032005137571957
  43    -0.053173785391501
  44    2.6649998732654e-14
  45     0.009218850108326
  46    8.6579712176495e-15
  47    -0.005852186959291
  48     -0.23510553950041
  49      -1.5806909300707
  50    0.0029316874635092
  51    -1.219771966503e-15
  52     -0.01888886391619
  53     -0.04226731165249
  54    -3.4675580132494e-14
  55     0.025903178314697
 Sym= A
 Ene=               9
 Spin= Alpha
 Occup=    0.00000
   1     0.013633996246538
   2     0.098490704464916
   3    0.00052684356153304
   4      0.74263745214171
   5     0.053744047924472
   6    1.6686076337044e-13
   7      0.13899596504631
   8     0.013442671076965
   9    2.8850462848809e-13
  10    -0.070955828291409
  11     -0.27175557428912
  12    9.4387902712932e-15
  13     -0.52655807396723
  14     0.003662487068461
  15    0.0085205496918838
  16    9.8082183068394e-15
  17    -0.0065716424686586
  18    6.1742873271101e-15
  19    -0.027225625563393
  20     -0.01383035532509
  21    -2.1563225698156e-14
  22     0.010506171757255
  23    9.2527463807543e-15
  24    -0.011511940030306
  25     -0.11156693929618
  26     -0.37763980182974
  27       -0.078610252709
  28     -0.12216660067159
  29    -1.8636851118159e-13
  30      0.20520269615052
  31    6.0941246407152e-05
  32    -4.2953608419661e-13
  33     0.088564818682445
  34      0.31711562186968
  35    1.7312629242221e-13
  36      -0.9969169665819
  37    0.0012684556822838
  38    0.0043686661686004
  39    -1.7378411884425e-14
  40    0.0060806284165846
  41    7.9392791318405e-15
  42      0.15925996226806
  43     0.038151732922055
  44    -4.6950040567844e-14
  45     0.040988865808591
  46    -8.9416030670444e-14
  47        0.039969178641
  48    -0.096068637384779
  49     -0.42732054399378
  50     0.019002636813449
  51    1.328237863749e-14
  52    -0.014632578035358
  53     -0.11524253068409
  54    6.2474134163324e-14
  55     -0.11394385083475
 Sym= A
 Ene=              10
 Spin= Alpha
 Occup=    0.00000
   1     0.023860177185438
   2     0.073197660310065
   3     -0.01606728880497
   4      -1.2925914407936
   5      0.10674167292188
   6    1.0259917367027e-12
   7      0.16718975203017
   8      0.35811866112298
   9    6.8891035388851e-13
  10    -0.058014946860351
  11       0.3877279952782
  12    -3.5454125545272e-13
  13    -0.047157517053477
  14     0.027963121963896
  15    -0.032210868979023
  16    1.2544525161717e-13
  17    -0.023521636990346
  18    -1.943253788268e-13
  19    -0.099861613593335
  20     -0.10943592717053
  21    1.3901906996386e-13
  22    -0.0088383333018178
  23    2.3751629240041e-13
  24     0.065017496865355
  25      0.18321253873596
  26      0.26014140610454
  27       1.7013271885175
  28      0.27442745707281
  29    7.4718658023172e-14
  30     -0.11035743320547
  31      0.11943750642047
  32    -9.6074988354328e-13
  33      0.59916962333234
  34     -0.28092285229154
  35    -4.6331476220032e-13
  36      0.92536746698244
  37    -0.0052177084930097
  38     0.041636504197577
  39     1.01419867937e-13
  40    -0.0084515351564482
  41    3.3686931831469e-13
  42    -0.043217085781565
  43     -0.31786394108742
  44    1.0703031153514e-13
  45     0.024556572109544
  46    5.4957582196798e-13
  47     -0.15976879234148
  48     -0.11270467403499
  49      -0.9381026136377
  50    -0.066256074416791
  51    1.5214142342312e-14
  52    -0.010870039532438
  53      -0.3459787174063
  54    -9.3813946277223e-13
  55      -1.0738599400529
 Sym= A
 Ene=              11
 Spin= Alpha
 Occup=    0.00000
   1     0.012525881133556
   2     0.048530673292877
   3     -0.51923513593419
   4      -2.6602443221722
   5    -0.088894551884521
   6    2.8058246837065e-11
   7      0.26078934715875
   8      0.35255116141732
   9    5.4548715006346e-12
  10      0.19534290835269
  11      -1.0919257794777
  12    1.2478328424473e-11
  13       1.0622836259822
  14     0.016764430710574
  15       0.0369382075794
  16    2.6849161124974e-12
  17    0.0050040722674302
  18    -7.4855697669927e-12
  19      0.10888527278025
  20     -0.37720706670335
  21    3.5040863992578e-12
  22     -0.12274449414612
  23    3.570607481023e-12
  24     0.015300970051539
  25      0.10965802508856
  26    -0.081993150137786
  27       1.8069240495654
  28    -0.068669653862687
  29    1.5712499029965e-12
  30     0.024441394966114
  31     -0.32882538694874
  32    -7.4184255038526e-12
  33      0.62506509779156
  34       1.3380649762646
  35    -6.9243528522608e-11
  36      0.10229358903404
  37    0.0036176953758575
  38     -0.12175659564083
  39    -6.2931994274491e-13
  40    -0.012202176992752
  41    1.1589115643194e-11
  42      0.39807365671892
  43      0.39387104544948
  44    2.0574753350444e-11
  45    -0.066914821612235
  46    1.6355000559374e-11
  47    -0.050703531917127
  48       1.1219535416388
  49     -0.56355871285946
  50    0.00084153242866261
  51    -1.2926427245393e-13
  52    -0.013866953510733
  53     -0.47892637645583
  54    -1.7594736768172e-11
  55       1.0747315544961
 Sym= A
 Ene=              12
 Spin= Alpha
 Occup=    0.00000
   1    1.2551140452325e-12
   2    4.3009180380315e-12
   3    -4.9677731304267e-11
   4    -2.5631229389753e-10
   5    -7.5670932969844e-12
   6     -0.30718095460913
   7    2.5766074858633e-11
   8    3.6746443646797e-11
   9    -0.063539286575076
  10    1.3347243187762e-11
  11    -1.0127561307377e-10
  12     -0.15847926020129
  13    1.0071791106944e-10
  14    1.582557348041e-12
  15    3.4540419064051e-12
  16    -0.029858920907749
  17    4.0697786601337e-13
  18     0.082046504822771
  19    1.0215856281276e-11
  20    -3.7182949825539e-11
  21    -0.043190465068968
  22    -1.14625267578e-11
  23    -0.041388678336439
  24    1.8922113320089e-12
  25    9.8376761470307e-12
  26    -2.0987438701543e-11
  27    1.7378431885503e-10
  28    -6.1092490441411e-12
  29    -0.010700527923576
  30    3.8368053290414e-12
  31    -3.6050351848746e-11
  32     0.084055957618622
  33    6.1904949066665e-11
  34    1.1947964926656e-10
  35       0.7969389162124
  36    1.9296798802707e-11
  37    1.3492006112009e-13
  38    -1.1704588345631e-11
  39    0.0088687641180322
  40    -9.7311571563225e-13
  41     -0.13015857773296
  42    3.8837668137637e-11
  43    3.381575754643e-11
  44     -0.23374368407168
  45    -7.2071174666601e-12
  46     -0.18177396316038
  47    -4.3108509964355e-12
  48    1.217614409976e-10
  49    -4.9888098990584e-11
  50    6.8011945423938e-14
  51    0.0033187009450277
  52    -1.2505182554511e-12
  53    -5.0299339373777e-11
  54       0.1749654980853
  55    1.0031181813709e-10
 Sym= A
 Ene=              13
 Spin= Alpha
 Occup=    0.00000
   1     0.049741828833887
   2      0.14399102742846
   3     -0.83453829322635
   4     -0.92603283794155
   5     0.038650074583491
   6    -7.8133333086183e-13
   7    -0.037001284030688
   8     -0.78214662071524
   9    1.0389281104528e-12
  10      0.27734302194751
  11      0.63913881261105
  12    6.3526895885565e-13
  13     0.025180182769205
  14      0.16250541995466
  15     -0.30531322245794
  16    -6.2841197253462e-13
  17      -0.1145829424844
  18    6.0780958011758e-13
  19     -0.54583059145443
  20      0.73151759386021
  21    4.0016160687432e-13
  22        0.248512372837
  23    -2.9094691509141e-12
  24     -0.23871737557734
  25     -0.55239535617521
  26      0.95844966996593
  27       1.8748650092728
  28    -0.041735271754704
  29    2.2232025143594e-13
  30     -0.15906125353632
  31      0.98780816408005
  32    -6.8823540331006e-13
  33      0.15818764523111
  34      0.16058690321491
  35    2.5769858376326e-12
  36      0.19674571757794
  37    -0.041860381143451
  38     -0.21281306022986
  39    8.348655264439e-13
  40    -0.086247799642719
  41    -1.5651542663827e-12
  42      0.28785795399837
  43       0.6446960991256
  44    -2.062833828131e-12
  45     0.025693733774523
  46    6.2341467419961e-13
  47      0.19769460318387
  48     -0.95947193655522
  49     -0.73482587182401
  50     0.056376513933064
  51    1.4480637529445e-13
  52      0.16485083794733
  53     -0.11079324674671
  54    -2.0452694574272e-12
  55      0.15264216103955
 Sym= A
 Ene=              14
 Spin= Alpha
 Occup=    0.00000
   1     -0.37811633636191
   2     -0.61606228659604
   3       3.4606653793023
   4       4.0261066555147
   5     -0.16124767563302
   6    1.8497513187993e-12
   7    0.0035129954258213
   8     -0.73628930595231
   9    -3.5957454604122e-12
  10      -2.9218093757502
  11     0.022171674355395
  12    1.1751309852687e-12
  13      -0.9528618205052
  14    -0.033250616390441
  15       0.3569784204066
  16    -1.7963409654882e-12
  17     0.069149345416135
  18    3.1418192665429e-12
  19       0.9379379269576
  20       0.2365539438576
  21    1.791994098273e-12
  22     0.059226949372924
  23    -2.5241655181422e-12
  24      0.25145112294359
  25      0.54792881796195
  26      -4.7733041027094
  27      -2.4245612685954
  28     -0.37998751191558
  29    1.4106533329743e-12
  30       -1.053605352555
  31     -0.29918684309785
  32    -1.8669903436669e-12
  33      -1.8582193411938
  34     -0.51024353942087
  35    -2.1346534300457e-12
  36     -0.74196184787748
  37     -0.41670690290874
  38     -0.44333642485591
  39    -1.2647311583941e-13
  40      0.15690522561148
  41    -1.6441490352118e-12
  42     -0.36537770621031
  43    -0.029587187594592
  44    1.1810798278374e-12
  45    -0.075982696518013
  46    -8.2946131907252e-13
  47     -0.17900313964269
  48     -0.25536710493109
  49     0.002372619656947
  50      0.12697769545477
  51    2.6133901839058e-12
  52      0.11420159481237
  53     0.015269535022783
  54    4.7378545434224e-12
  55     -0.52858737223541
 Sym= A
 Ene=              15
 Spin= Alpha
 Occup=    0.00000
   1     -0.15688782346263
   2     -0.28954876557549
   3       1.2456100001376
   4      0.86151536091465
   5      0.64833523051052
   6    1.4884313968449e-12
   7     -0.30412584908453
   8      -1.9374453307933
   9    8.786612613301e-12
  10     -0.14810250625662
  11     -0.21431386493731
  12    7.2157297453245e-12
  13     -0.22750485177228
  14      0.30599031502031
  15      -0.7158640280951
  16    1.0838679793997e-11
  17     -0.13831689000009
  18    -4.8643027409647e-13
  19     -0.13469345411372
  20      0.92684528100089
  21    -1.138824359683e-11
  22      0.25948458727087
  23    -9.5064164817479e-13
  24      0.13985329787265
  25      0.30504512458332
  26      -1.9820433864139
  27       -1.213708050496
  28      -0.1196743070806
  29    -3.4997684568631e-12
  30     -0.30771110897134
  31      0.85207863260687
  32    -1.206269344092e-11
  33     -0.68197670099383
  34     -0.04948128563019
  35    -3.1830988919344e-12
  36     -0.11399437199266
  37      -0.1452885922621
  38    -0.054106585837706
  39    6.2272765007255e-12
  40      0.03030451510708
  41    6.9350562404917e-12
  42     -0.61351947659472
  43      0.60112022763279
  44    -1.0840585217611e-11
  45      0.33542173276886
  46    -8.3236074033447e-12
  47     -0.20907787232396
  48      0.92321418649254
  49      0.25391947853766
  50    -0.069280269360958
  51    -1.034715159367e-12
  52    -0.0083970101394273
  53     -0.37345442621698
  54    4.4840551485815e-12
  55     0.047147390754408
 Sym= A
 Ene=              16
 Spin= Alpha
 Occup=    0.00000
   1    -0.0017219829437619
   2    -0.0033250225847252
   3    0.00069934676157747
   4    -0.081731523162426
   5    -0.00031218616379524
   6      -0.2214923583469
   7    -0.011713277076682
   8    1.8269102837708e-05
   9     -0.37966087453825
  10    -0.011122365445904
  11    -0.056305545848276
  12       2.0599798198942
  13     0.001330279558739
  14    -0.00043712055027411
  15     0.001484137473067
  16     0.017483104386753
  17    -0.00027780625638212
  18    -0.0016786890604979
  19    -0.0002416339701598
  20     0.015869136511135
  21    -0.072490715056257
  22    0.0050574318413715
  23     -0.01380904658392
  24    -0.0044841628056987
  25    -0.014981036943526
  26    0.0013774926819802
  27      0.24301650416863
  28     -0.01295738101263
  29      0.14826462323451
  30    -0.0080929800254996
  31     0.023809709668998
  32     0.081318619557899
  33    -0.014821022237432
  34      0.10457904141551
  35      -1.6994306852787
  36      0.03489163800069
  37    -0.0027595892456632
  38    -0.0067124766501059
  39    -0.004073914456622
  40    -0.00034698595672046
  41     0.017355988118549
  42      0.00414265712649
  43     0.012582578987164
  44    -0.096238028245172
  45    0.0019999269496139
  46    -0.040823023686631
  47    0.0056779172548118
  48    -0.098007371378768
  49    -0.091914788170356
  50    0.0039898736897109
  51    0.0038652680065188
  52    0.0017060411946197
  53     0.034515672426835
  54      0.12896475088319
  55    -0.027780704312007
 Sym= A
 Ene=              17
 Spin= Alpha
 Occup=    0.00000