[Molden Format]
made by pyscf v[2.13.1]
[Atoms] (AU)
O   1   8     0.21099695469856     0.00000000000000     2.15462460678861
N   2   7    -0.44776862100326     0.00000000000000    -0.03589262653049
H   3   1     1.18163474748449     0.00000000000000    -1.17386889907833
[GTO]
1 0
 s    8 1.00
                 11720  0.00070964594651845
                  1759  0.0054672722921914
                 400.8   0.027823118610189
                 113.7    0.10474773971146
                 37.03    0.28292084635691
                 13.27    0.44849523869833
                 5.025    0.27081688521277
                 1.013    0.01545029160744
 s    8 1.00
                 11720  -0.00031444341168873
                  1759  -0.0024821376810179
                 400.8  -0.012316355381583
                 113.7  -0.050538917343672
                 37.03   -0.13938490331632
                 13.27   -0.32507749481778
                 5.025   -0.22984830758785
                 1.013     1.0953793467883
 s    1 1.00
                0.3023                   1
 s    1 1.00
               0.07896                   1
 p    3 1.00
                  17.7   0.062679166281506
                 3.854    0.33353656587936
                 1.046    0.74123964163973
 p    1 1.00
                0.2753                   1
 p    1 1.00
               0.06856                   1
 d    1 1.00
                 1.185                   1
 d    1 1.00
                 0.332                   1

2 0
 s    8 1.00
                  9046  0.00069961741342552
                  1357  0.0053860546299287
                 309.3   0.027391021189057
                 87.73    0.10315059198201
                 28.56    0.27857066331743
                 10.21    0.44829484945412
                 3.838    0.27808592839527
                0.7466   0.015431561233271
 s    8 1.00
                  9046  -0.00030499009595337
                  1357  -0.0024080263785077
                 309.3   -0.01194444872518
                 87.73  -0.048925992909017
                 28.56   -0.13447272472496
                 10.21   -0.31511257770011
                 3.838   -0.24285783254964
                0.7466     1.0943822068542
 s    1 1.00
                0.2248                   1
 s    1 1.00
               0.06124                   1
 p    3 1.00
                 13.55   0.058905676772132
                 2.917    0.32046110671427
                0.7973    0.75304206179207
 p    1 1.00
                0.2185                   1
 p    1 1.00
               0.05611                   1
 d    1 1.00
                 0.817                   1
 d    1 1.00
                  0.23                   1

3 0
 s    3 1.00
                 13.01   0.033498726389998
                 1.962    0.23480080117413
                0.4446     0.8136829578829
 s    1 1.00
                 0.122                   1
 s    1 1.00
               0.02974                   1
 p    1 1.00
                 0.727                   1
 p    1 1.00
                 0.141                   1

[5d]
[7f]
[9g]

[MO]
 Sym= A
 Ene=               0
 Spin= Alpha
 Occup=    1.00000
   1    -0.00097517629145409
   2    -0.023438427532526
   3    -0.051275685920901
   4    -0.033988948545652
   5      0.43047197995696
   6    1.9302408967552e-12
   7    -0.090881752962999
   8       0.3511070623148
   9    1.3800399407624e-12
  10    -0.059928887684577
  11     0.085186147022943
  12    1.2985396184146e-13
  13    -0.008587426495842
  14    -0.0026957334538959
  15    0.0018985724252863
  16    -1.1218549338838e-13
  17    0.00023052824062277
  18    -2.9740372865613e-14
  19    -0.00063592798275713
  20    -0.0085258299574427
  21    -1.6290511145993e-13
  22    -0.0036788678639848
  23    -3.7895374545919e-14
  24    0.0032342816081043
  25       0.1416305567108
  26      0.30469045829652
  27      0.13227278488921
  28     -0.43707062185514
  29    1.5299243825454e-12
  30     -0.01631040720428
  31     -0.29796976634282
  32    9.1146577770847e-13
  33    0.0031601862302119
  34    -0.052455582004595
  35    7.0236451317175e-14
  36    -0.0022299116010788
  37    -0.0067316138828212
  38     0.023042224284168
  39    1.5673829763976e-13
  40    -0.012841035236974
  41    8.1550087607827e-14
  42     0.012222375039581
  43     0.002587487338992
  44    -9.7240150777791e-15
  45    -0.0070220357298504
  46    5.4396511967489e-14
  47     -0.29396689995087
  48     -0.14314224652624
  49    -0.023539437949082
  50      0.01281701247431
  51    4.1351804445087e-14
  52    -0.016487266576086
  53    -0.0079148240332984
  54    -1.1439954745216e-14
  55     0.018351203606284
 Sym= A
 Ene=               1
 Spin= Alpha
 Occup=    1.00000
   1    0.00060747499154144
   2     0.078502627300948
   3      0.13848336238142
   4     0.043777445775375
   5      0.47770755871501
   6    -9.5295654178522e-12
   7      0.13188913211043
   8      0.30658188562241
   9    -6.8131737320671e-12
  10      0.05461058492656
  11     0.015633027776298
  12    -6.3715473997837e-13
  13    -0.0057672714211597
  14    -0.003851109400533
  15    -0.020886646576763
  16    5.5420428401356e-13
  17    -0.0043886108717508
  18    1.4696637525008e-13
  19     0.001698628191291
  20    -0.024702146568493
  21    8.0350869894572e-13
  22    -0.002628039763155
  23    1.8633847139432e-13
  24    -0.005446780084901
  25    -0.094723140664102
  26    -0.078183638094878
  27    -0.00017216186446348
  28      0.24507853990074
  29    -7.5529607348807e-12
  30     -0.24125049812166
  31     0.086304753681523
  32    -4.499970155887e-12
  33    -0.068888699759522
  34    0.0050986606545618
  35    -3.5222429983339e-13
  36    -0.0088195071669717
  37    -0.029317676656701
  38    0.0014488497721238
  39    -7.7401500873666e-13
  40     0.016025172769219
  41    -4.0214198013262e-13
  42    0.0093817331728469
  43    -0.010446091054745
  44    4.7111187685737e-14
  45    -0.005808934418958
  46    -2.6960276613075e-13
  47         0.19333413673
  48     0.021444819777077
  49    -0.0042431855848388
  50    -0.015652572353317
  51    -2.0396113043616e-13
  52     0.011247329047379
  53    0.0020352198631284
  54     5.70038316678e-14
  55    0.0088171907281308
 Sym= A
 Ene=               2
 Spin= Alpha
 Occup=    1.00000
   1    -0.0008397310408132
   2     0.061056651817049
   3      0.12694970124628
   4     0.046727813030531
   5     -0.15983080618523
   6    -1.6376239265647e-12
   7      0.48827774120861
   8     -0.10747743731171
   9    -1.1699373140206e-12
  10      0.29355382959881
  11    -0.015422298236553
  12    -1.0906003433845e-13
  13    0.0090341733007526
  14    -0.023670287111778
  15    -0.0014517338004185
  16    9.5292825104736e-14
  17    0.0020378449392712
  18    2.5239325997127e-14
  19    -0.022786118356169
  20    -0.00018321236817714
  21    1.3748333073132e-13
  22    0.00037595309817036
  23    3.195344225825e-14
  24    0.0014166737920039
  25     0.017512318973059
  26      0.15208012446804
  27    -0.0021572197716456
  28     -0.24400229142404
  29    -1.2982646395141e-12
  30     -0.34231752699852
  31     -0.11515770667024
  32    -7.7438107353431e-13
  33     -0.12325146989732
  34    -0.0084892386942268
  35    -6.104362725795e-14
  36    -0.0050259262689103
  37    -0.014549285918997
  38    -0.037842964934638
  39    -1.3302730133835e-13
  40    -0.009084479859625
  41    -6.9087288987183e-14
  42    0.0053499329635982
  43    0.0003300019819121
  44    7.4535764179764e-15
  45    -0.0048857811580794
  46    -4.6707952288758e-14
  47     0.055455785403485
  48     0.052312879287961
  49    0.0050892941310558
  50    -0.0065899510387692
  51    -3.5013121286854e-14
  52    -0.0051749542102296
  53    -0.0087699674924241
  54    1.0007082681563e-14
  55    0.0099742626870597
 Sym= A
 Ene=               3
 Spin= Alpha
 Occup=    1.00000
   1    -4.2326981845827e-13
   2    3.5035376648083e-11
   3    5.448182722458e-11
   4    9.9731580739345e-12
   5    1.3935306475316e-11
   6      0.46121976843488
   7    2.4935563613808e-11
   8    6.5703096947676e-12
   9      0.32974340462069
  10    7.9102604734914e-12
  11    2.9353542961572e-13
  12     0.030802567338183
  13    -1.1441575296654e-12
  14    -1.7729404278485e-12
  15    -9.1595177815392e-13
  16    -0.026824120160976
  17    1.0590260412244e-13
  18    -0.0071124454579522
  19    -1.0739482923841e-12
  20    -2.0912704751253e-13
  21    -0.038877470563028
  22    6.2055392431438e-14
  23    -0.0090210235614492
  24    -1.2544248453494e-12
  25    -6.2672017468061e-11
  26    -6.4995159315071e-11
  27    -7.6163862345742e-12
  28    -3.5895463761956e-12
  29      0.36554341648903
  30    2.0268208880677e-11
  31    3.014625839919e-12
  32      0.21781160050653
  33    2.5463610251779e-12
  34    -4.2274378393212e-13
  35     0.017054177082775
  36    -8.9845276603772e-13
  37    4.0307238834291e-13
  38    1.9564891114104e-12
  39     0.037460083469865
  40    -8.8695059212443e-13
  41     0.019463655437898
  42    -2.4026298980536e-12
  43    -2.8474709902884e-12
  44    -0.0022756620392066
  45    1.6491901223499e-12
  46     0.013052508618961
  47    -3.710365293193e-11
  48    -1.6284623030432e-12
  49    2.5189969598661e-13
  50    4.5452335155659e-12
  51    0.0098714669262827
  52    -2.5979632951287e-12
  53    -1.1840193969166e-12
  54    -0.0027623694064091
  55    8.6376758233129e-13
 Sym= A
 Ene=               4
 Spin= Alpha
 Occup=    1.00000
   1    -0.0028682746038389
   2      0.23019245437519
   3      0.34848888123482
   4     0.058716539868167
   5     0.040141416965757
   6    -7.1318474825829e-11
   7      0.12803392736824
   8     0.012541936689359
   9    -5.0986605156581e-11
  10     0.033668757609643
  11     0.002458632907448
  12    -4.7632334887239e-12
  13    -0.0069826678951253
  14    -0.010016383210057
  15    -0.0027820225282021
  16    4.147914526802e-12
  17    0.0012627524738704
  18    1.0998736570453e-12
  19    -0.0061619306217527
  20    0.0019272302727032
  21    6.0108377282196e-12
  22    0.00071842550430928
  23    1.3945807249053e-12
  24    -0.010302416878902
  25     -0.37998986810309
  26     -0.40223461646222
  27    -0.046334410115839
  28    -0.060799194641215
  29    -5.6523831714551e-11
  30      0.17505209764889
  31    0.0016928053235154
  32    -3.3681576933199e-11
  33     0.026959284622546
  34    -0.0046665630767007
  35    -2.6366283484037e-12
  36    -0.0050088972040609
  37    0.0075311829743033
  38     0.014493647414395
  39    -5.7924565484398e-12
  40    -0.0079896615589662
  41    -3.0096916946993e-12
  42    -0.017143371627833
  43    -0.017083441821447
  44    3.5085447501386e-13
  45     0.011060051124755
  46    -2.0186596776338e-12
  47     -0.27250704357434
  48    -0.019274580027447
  49    0.0014651969361723
  50     0.031524199423756
  51    -1.5263600834374e-12
  52    -0.018264306213875
  53    -0.0075512976082607
  54    4.2709109488377e-13
  55    0.0043707253448571
 Sym= A
 Ene=               5
 Spin= Alpha
 Occup=    1.00000
   1    -0.0046670123472988
   2      0.41182186285754
   3      0.48152228379268
   4     0.046307785406546
   5    -0.037408398134177
   6    2.7985097803575e-12
   7    -0.049208504744647
   8     -0.02400129172127
   9    2.0003285356266e-12
  10     -0.04494260855454
  11    8.311901796649e-05
  12    1.8709309573487e-13
  13    0.0034635836090284
  14     0.011801538603416
  15    0.0067670791095735
  16    -1.6272797002629e-13
  17    0.00081898721686306
  18    -4.31644080501e-14
  19     0.012495284678612
  20    0.0051007348882907
  21    -2.359224505252e-13
  22    0.0018523466932678
  23    -5.4632291375702e-14
  24    -0.007444106375426
  25      0.23511293153076
  26      0.07469562590742
  27    -0.012730635137522
  28     0.035511173774347
  29    2.2178800056938e-12
  30      0.11041231371303
  31    -0.021268715853016
  32    1.3217572930123e-12
  33    -0.039276485559106
  34    0.00014670107625787
  35    1.0336015306093e-13
  36    -0.0094274913412884
  37     0.021897272288146
  38     0.013850020714267
  39    2.2732160854987e-13
  40    0.00069490607782129
  41    1.1803309015607e-13
  42    -0.013845813492941
  43    -0.0027348065209452
  44    -1.3637971107829e-14
  45    -0.0076208389027019
  46    7.9324645858018e-14
  47     0.064015852198262
  48    -0.019825459512976
  49    -0.00010010661197121
  50    -0.011713051849746
  51    5.993440956797e-14
  52    0.0093000804575573
  53    0.0094183400635906
  54    -1.6948469278618e-14
  55    -0.0075661261077535
 Sym= A
 Ene=               6
 Spin= Alpha
 Occup=    1.00000
   1      0.98993937445756
   2    0.0029030356770445
   3    -0.015948905834492
   4    -0.0048620918889283
   5    -0.00051918715692154
   6    -1.9416276842389e-14
   7    0.0010054124823131
   8    0.0020060685612904
   9    -1.4447933590496e-14
  10    0.0097047632678177
  11    0.00027695427920076
  12    -1.7194297736934e-15
  13    0.0008110827178986
  14    3.7755790665102e-05
  15    -1.8580475461208e-05
  16    1.0197325061871e-15
  17    0.00030606293979207
  18    2.3624194321242e-16
  19    -0.0021269384727297
  20    -0.00098193436624248
  21    2.2004350083712e-15
  22    -0.00015369691043293
  23    4.9706496849485e-16
  24      0.15582961623853
  25    -0.0031165204545598
  26    0.0081254281330762
  27    0.0028415990677559
  28    -0.00070142573408973
  29    -1.5404542477546e-14
  30    -0.00023019755554528
  31    0.0017969058663742
  32    -8.5068768170369e-15
  33    0.0085627545554413
  34    -7.4809589714675e-05
  35    -4.5354995719304e-16
  36    0.0011235846388125
  37    -0.00025619567824392
  38    -0.00031826216289982
  39    -1.562348701364e-15
  40    1.1349092452626e-05
  41    -8.1583869189839e-16
  42    0.0020687059142966
  43    0.0014709927218526
  44    5.5539522343506e-16
  45    0.00031068121041392
  46    -3.3635481126238e-16
  47    -0.0017469884890274
  48    0.0026651984687262
  49    -2.7664544463583e-05
  50    0.0003990658841512
  51    -4.3653359510499e-16
  52    -0.00044436131111475
  53    -0.0010635191982906
  54    4.6336219674232e-17
  55    0.0004805365522022
 Sym= A
 Ene=               7
 Spin= Alpha
 Occup=    1.00000
   1      -0.1557528987149
   2    0.0034386792961495
   3    0.0047102842942597
   4    -0.00032779153927119
   5    0.00041215483159893
   6    -1.9024277806532e-13
   7    -0.00017188891259216
   8    0.00057869719859953
   9    -1.3867050601458e-13
  10    0.00044607070348185
  11    4.7121059007155e-05
  12    -1.4654124782639e-14
  13    0.00020677072741292
  14    -0.00028666200936189
  15    -9.5141603342728e-05
  16    1.0307562560497e-14
  17    -8.1611667952044e-05
  18    2.6909248414012e-15
  19    -0.00077190344329892
  20    -0.00048890769991229
  21    1.8922562753197e-14
  22    -0.000146666333226
  23    4.4155718986428e-15
  24      0.98946610010712
  25    0.00060470723290858
  26     -0.01013912392998
  27    -0.0024961900740024
  28    0.0024424003002681
  29    -1.5073564493551e-13
  30    0.0039735764647517
  31    -0.0022807262011501
  32    -8.6329921436992e-14
  33    0.00080177233192529
  34    -0.00064091987381059
  35    -5.5015355938714e-15
  36    0.00037740558045661
  37    0.00082335453351087
  38    0.00037977226828388
  39    -1.5297553499543e-14
  40    0.00051044512194362
  41    -7.9803127603138e-15
  42    -0.00074640095371646
  43    -0.00025684044804886
  44    3.3008919219385e-15
  45    -0.00030551091066653
  46    -4.2939503571959e-15
  47    -0.0016654554997178
  48    0.0053577308201616
  49    0.00062236819292591
  50    0.00068526148360816
  51    -4.1899626276168e-15
  52    -0.00037702347496822
  53    -0.0018298529851152
  54    7.5364674770913e-16
  55    0.0014900610277725
 Sym= A
 Ene=               8
 Spin= Alpha
 Occup=    0.00000
   1    -4.5017313934172e-13
   2    -1.0296188909199e-12
   3    7.6575223293081e-12
   4    2.1335420223937e-12
   5    -5.5907877273359e-13
   6    -0.088467515587701
   7    3.2450902968726e-12
   8    -3.1250572076299e-12
   9    -0.083060779959504
  10    -1.6972928481236e-12
  11    -3.9392860507602e-12
  12     -0.17829741411407
  13    -1.3225139063947e-11
  14    -3.4318315183657e-13
  15    6.1354500600478e-13
  16     0.016900697983492
  17    1.7844679036874e-13
  18    0.0038511322310361
  19    6.4999137941418e-13
  20    1.3139196466409e-12
  21     0.018001075540389
  22    4.3047355885461e-13
  23    -0.0070236965396627
  24    -3.4308489500018e-13
  25    1.4000863482816e-12
  26    1.0033030943588e-11
  27    2.0202303141394e-11
  28    -9.7460770253339e-12
  29     -0.12935391785743
  30    3.112160069074e-12
  31    -8.979192478262e-12
  32     -0.22702251546302
  33    -7.2876554193594e-12
  34    6.4551569015999e-11
  35        1.285711343077
  36    -1.6586852239252e-12
  37    2.7628322172724e-13
  38    -1.1750619870314e-12
  39    -0.027912257818238
  40    -7.6989976071561e-13
  41    -0.013514543400779
  42    -3.4448399911642e-12
  43    -3.0571858707376e-12
  44    -0.071519312887767
  45    2.4152157557781e-12
  46      0.03221778465498
  47    1.4130580694183e-12
  48    -3.0133983917902e-11
  49    -3.032150170565e-11
  50    1.0013252204943e-12
  51    0.0085872077362437
  52    -3.4001473953856e-13
  53    6.2178117704162e-12
  54     -0.05675614969704
  55    -8.481627929399e-12
 Sym= A
 Ene=               9
 Spin= Alpha
 Occup=    0.00000
   1    1.3484585687662e-13
   2    8.2069440730324e-13
   3    7.1023996485393e-13
   4    -3.9079133557941e-12
   5    -7.3680505137049e-13
   6      -0.4543924334426
   7    -3.1050186541027e-12
   8    6.6589421908424e-13
   9     -0.37460254599858
  10    -6.6313956327359e-13
  11    -1.7808588928256e-12
  12     -0.18693489944362
  13    4.7407163068478e-12
  14    1.0178188123898e-13
  15    -2.9861447140927e-13
  16    -0.010867610850853
  17    3.2228190326099e-15
  18    0.00092557719822433
  19    -2.5371239650121e-13
  20    -6.1448096297441e-13
  21    -0.00074365912487129
  22    -2.2644256964731e-14
  23    0.0016584985873043
  24    -1.2077677138727e-13
  25    -9.1658632201202e-13
  26    -1.2196595029107e-12
  27    7.240917048358e-13
  28    2.1250896545523e-12
  29      0.52742520453198
  30    -3.735818435647e-12
  31    1.5628184978581e-12
  32      0.50048056273454
  33    -6.852438998649e-13
  34    -7.9860703089035e-12
  35    -0.0011380362226392
  36    2.1503075125199e-12
  37    -2.2953319350597e-14
  38    5.9286522965896e-13
  39    -0.0062382394777339
  40    9.9749648631619e-14
  41      0.01572365796806
  42    2.4937853660022e-13
  43    6.2399058809083e-13
  44    -0.00067575756813466
  45    -7.6710861400834e-13
  46     0.010201497635853
  47    -1.3845494395676e-12
  48    3.0169659255954e-12
  49    4.3769993971423e-12
  50    -3.1490910678825e-13
  51      0.01660317105974
  52    3.1781780560077e-14
  53    -1.1537055423613e-12
  54     0.052010582263622
  55    1.1321917260467e-12
 Sym= A
 Ene=              10
 Spin= Alpha
 Occup=    0.00000
   1    4.9799166283594e-13
   2    2.2258664699666e-11
   3    8.3415849546444e-11
   4    1.0567007115397e-10
   5    -1.9631903197964e-11
   6     -0.36843256175439
   7    -5.1781102385497e-11
   8    -2.9644611557989e-11
   9      -0.1811162999275
  10    -5.3602781909325e-11
  11    3.7579261958342e-11
  12       1.5319832838524
  13    -5.5810074319394e-11
  14    -1.3664441692529e-12
  15    4.0053641285083e-13
  16     0.080679235733009
  17    1.1341796037817e-12
  18    0.0065151742863434
  19    -5.3901375270277e-13
  20    2.4796177978441e-12
  21      0.14926014146378
  22    1.1101305148972e-12
  23    -0.050687658163663
  24    -3.0388564063716e-12
  25    -2.4587890147541e-11
  26    -6.9658133972421e-11
  27    -6.1272357477903e-11
  28    -1.0039394994811e-11
  29      0.36182458517553
  30    -7.0138547323336e-11
  31    -1.2503150928782e-11
  32     -0.21954715728331
  33    -6.6541257859853e-11
  34    -3.3041535109938e-11
  35      -1.0193232212941
  36    -5.1504154185729e-11
  37    4.1561744217183e-12
  38    2.9098258534889e-14
  39    -0.020295043881122
  40    -1.1712677883394e-12
  41    -0.047475388294557
  42    6.8005633750636e-13
  43    -1.7412682466945e-12
  44      0.23037061669139
  45    3.5764703351528e-12
  46      0.10733734581535
  47    -4.0942827219293e-12
  48    -5.1344593060245e-11
  49    -2.5929336627998e-12
  50    -9.797270440557e-13
  51     -0.00161971147815
  52    -1.3232371290522e-12
  53    2.3597172047524e-11
  54    0.0081319035189016
  55    -3.1502440266672e-12
 Sym= A
 Ene=              11
 Spin= Alpha
 Occup=    0.00000
   1    -0.0038220302432445
   2    -0.023498436058807
   3     -0.41378144623909
   4       1.5500157860014
   5      0.25912681294772
   6    -6.6333804707075e-11
   7      0.23490684889708
   8     0.095206739932524
   9    6.6755409889278e-11
  10     0.082872724043005
  11     -0.58739962508469
  12    -4.4773512298963e-11
  13     -0.42471226130464
  14    -0.066548610006552
  15    -0.00047600424387987
  16    -5.844796055888e-12
  17     -0.10367441151188
  18    6.7340291900859e-12
  19    -0.089033352046885
  20    0.0028443480727545
  21    -2.4692394511668e-11
  22     -0.27328735979709
  23    2.1075365986117e-12
  24    -0.011337601439946
  25     0.048056053940049
  26      0.39725549928299
  27      -2.8805273238525
  28     -0.15921230576895
  29    -7.7909742314433e-12
  30      0.11710690717516
  31     -0.26434455986362
  32    6.8475404747169e-11
  33      0.54227555652949
  34    -0.00043064055357453
  35    8.7211703102697e-11
  36     -0.30756386216672
  37    -0.013658682973447
  38    -0.020519819920253
  39    2.554188703147e-11
  40    -0.044554871049346
  41    1.3327751003477e-11
  42      0.14016695557089
  43      0.07250294564919
  44    1.965527589819e-12
  45    -0.043496937575992
  46    -3.544582984853e-11
  47      0.26414239819007
  48       1.1569732435557
  49     -0.14138891633181
  50    -0.011500675614192
  51    -3.7749226903625e-12
  52    0.0074780180991648
  53     0.032946319989894
  54    -1.852639276916e-10
  55    -0.090701025102425
 Sym= A
 Ene=              12
 Spin= Alpha
 Occup=    0.00000
   1    3.8051835563973e-12
   2    7.9148802513849e-12
   3    -8.0211578656833e-11
   4    2.6083623722757e-10
   5    3.9844118754747e-11
   6      0.38379815473393
   7    4.7369341920001e-11
   8    5.1113709518394e-12
   9     -0.30702419883743
  10    5.5508257387738e-12
  11    -7.9775213796816e-11
  12      0.39682091697059
  13    -9.9556502864476e-11
  14    -1.1216652855506e-11
  15    1.5431002224333e-12
  16     0.051072913854846
  17    -1.9406879533186e-11
  18    -0.032969978764762
  19    -1.3914218680744e-11
  20    1.5165435284916e-12
  21      0.19125393781468
  22    -4.4798310659452e-11
  23    -0.0079961989580357
  24    1.6582143989777e-11
  25    5.826784626579e-11
  26    6.1743692777497e-11
  27    -4.5428587179979e-10
  28    1.3467078565183e-12
  29      0.38306195038728
  30    -1.3425802134829e-11
  31    -4.3332456074685e-11
  32     -0.74016931456836
  33    8.2435785816351e-11
  34    -3.4881257218752e-11
  35     -0.62349949065629
  36    -3.2763115785294e-11
  37    8.6111904041805e-13
  38    6.4277375143815e-14
  39     -0.14034125410666
  40    -1.4858313880131e-11
  41     -0.10715270819291
  42    3.2144441840002e-11
  43    2.1608068616564e-11
  44     -0.07641419813964
  45    -1.7451480572453e-12
  46      0.20602498375756
  47    1.907051578398e-11
  48    1.4140572578757e-10
  49    -1.8713002612998e-11
  50    -4.033328033973e-12
  51    0.0094209593695117
  52    3.1300938466814e-12
  53    7.2750395678948e-11
  54        1.084583985883
  55    -1.7495962007286e-11
 Sym= A
 Ene=              13
 Spin= Alpha
 Occup=    0.00000
   1    -1.7586406308022e-11
   2    -5.2463255976597e-11
   3    -1.4799161469702e-11
   4    3.4359203727641e-11
   5    1.6888840523181e-11
   6     -0.16557770650086
   7    4.9064408410379e-11
   8    1.5725334328323e-12
   9     0.055185904796293
  10    4.6046236617899e-11
  11    2.5215546831688e-11
  12      0.34425268993052
  13    -1.1882481579825e-11
  14    -8.1201696521289e-12
  15    -3.2499685421996e-12
  16     -0.17253553536661
  17    -1.8825487362049e-12
  18     -0.12530914784642
  19    -1.2820853263788e-11
  20    4.8941167234083e-12
  21      -0.2195294407832
  22    -1.7862595928166e-11
  23     -0.62677248123833
  24    1.9317639673738e-11
  25    6.4742058915416e-11
  26    6.1789283133096e-11
  27    -4.960720163537e-11
  28    2.3220991636576e-11
  29     -0.61882155251256
  30    4.6341681627749e-11
  31    2.8955080563223e-11
  32      0.34446858377154
  33    3.9729517943101e-11
  34    -3.6645444429804e-11
  35     -0.51389977410722
  36    -4.089169567168e-11
  37    1.2645098254101e-11
  38    -7.5451127460923e-12
  39      -0.1692787197584
  40    6.4322916559888e-12
  41      0.19582076802667
  42    1.6294325869671e-11
  43    1.4576211860912e-11
  44    -0.0078933619187605
  45    1.7057211926886e-11
  46        0.413764978377
  47    -4.9911579786436e-12
  48    -3.4107051738713e-11
  49    -7.6748940538712e-12
  50    3.8429510376031e-12
  51     0.074931750820133
  52    -1.879836947745e-12
  53    1.2903227952772e-11
  54      0.13857683029616
  55    -1.8520248811847e-11
 Sym= A
 Ene=              14
 Spin= Alpha
 Occup=    0.00000
   1    -1.1808263449448e-11
   2    -4.1423602485633e-11
   3    -3.0519055770273e-12
   4    -1.972967332812e-11
   5    1.4105582396384e-11
   6      -0.7965485363393
   7    5.1080472158534e-11
   8    5.2244916352441e-12
   9       1.7709547731971
  10    4.3030637550583e-12
  11    -7.0230217468262e-12
  12     -0.60314153975584
  13    1.3428890602764e-11
  14    8.8099150731937e-12
  15    8.2633483913086e-12
  16      0.28170088501005
  17    6.4209540724401e-12
  18      0.38321931871819
  19    3.7976887735871e-12
  20    -4.4096751043868e-13
  21     -0.47448338178907
  22    2.9570129353128e-12
  23    -0.091398916155527
  24    1.7840299583779e-11
  25    5.7255715592985e-11
  26    -2.4760452172784e-11
  27    3.3167417328554e-12
  28    3.6554699085936e-11
  29      -0.1000904377665
  30    3.0721644128708e-11
  31    -1.6367524610661e-11
  32     -0.88301979665256
  33    2.0348351555252e-11
  34    -1.2718477517503e-11
  35      0.12116173562334
  36    2.6084426699968e-11
  37    -1.9978508106962e-12
  38    5.054271596787e-12
  39      0.24298080920918
  40    -4.0475926782093e-12
  41     -0.10035716187728
  42    2.029320328954e-12
  43    3.1523609776621e-12
  44     -0.63652996013912
  45    -1.7911499945795e-12
  46    -0.096568262894803
  47    -1.2083078960419e-11
  48    3.5431601198913e-11
  49    9.6529522754313e-12
  50    2.4038096515475e-12
  51     0.034254306249903
  52    -1.1800072099453e-12
  53    1.0498975453699e-11
  54      0.40926473226153
  55    1.0761189668412e-11
 Sym= A
 Ene=              15
 Spin= Alpha
 Occup=    0.00000
   1    -5.4464436595687e-11
   2    -1.1102763947373e-10
   3    3.502076821732e-10
   4    1.776925598613e-10
   5    1.9523635132915e-12
   6     -0.21366521255679
   7    4.8182816430905e-12
   8    -8.5860012711297e-11
   9      0.92229576061604
  10    -2.2761211723487e-10
  11    -4.287970607517e-12
  12     -0.90450965700704
  13    -9.4093839846583e-12
  14    2.4275594281169e-11
  15    5.4627095731851e-12
  16    -0.0062178716936634
  17    5.7249338750281e-12
  18    -0.053924979597373
  19    7.2153422388605e-11
  20    4.2411719606541e-11
  21     -0.26841517403803
  22    1.5964268406838e-11
  23     -0.22893514556339
  24    -7.3356583327909e-11
  25    -1.9077316071187e-10
  26    -2.2254415804713e-10
  27    8.3935988367302e-11
  28    -2.0266005932355e-10
  29      0.37432648211683
  30    5.1899375970142e-11
  31    9.9359722144027e-11
  32     -0.94320764233472
  33    -2.3029980475486e-10
  34    3.685906356822e-11
  35       1.0323766993182
  36    -3.9815163247957e-11
  37    2.6963229936305e-11
  38    2.053462991164e-11
  39     -0.84019099777503
  40    -3.3562334155367e-11
  41      0.32526208834772
  42    -8.8024797023605e-11
  43    -2.7528018975708e-11
  44     0.095147843996354
  45    3.4872851038219e-11
  46    -0.0069294588983308
  47    1.1527589706089e-10
  48    -1.9998752465105e-10
  49    -3.3551846119913e-11
  50    -7.1790617186981e-11
  51     0.092804197016144
  52    5.7745595096118e-11
  53    -4.326484120058e-12
  54      -0.3326896390423
  55    -7.4963226525057e-11
 Sym= A
 Ene=              16
 Spin= Alpha
 Occup=    0.00000
   1      0.01414384240526
   2     0.021206750653708
   3      -0.2643570786338
   4      -2.4969635184799
   5     0.075795372653284
   6    0.0077799557216293
   7    -0.083225151902638
   8      0.26915299447988
   9      0.30820789316244
  10      0.14723547526702
  11     -0.99613520508637
  12      0.37524512410725
  13       1.3021667490026
  14    0.0097171736240218
  15    -0.010083272866449
  16    0.0047104846036817
  17    0.0047652939187274
  18     0.056050158347566
  19    -0.070678570021307
  20    0.0064324448964063
  21     -0.31566673413106
  22      0.02151787369239
  23     0.057844389769526
  24     -0.01454149672271
  25    -0.099279735688079
  26      0.26343973908008
  27       5.0991880789143
  28    0.0044076221151782
  29     -0.10341495161729
  30     0.045697582265293
  31      0.34398737542085
  32     -0.18679649637251
  33      0.27991342616359
  34       1.2240296005484
  35     -0.32893547199615
  36      -0.2698004236732
  37    0.0029226637101932
  38     0.010825302183032
  39      -0.1250624783753
  40    0.0097573386879515
  41     0.089315085115508
  42     0.099379148233851
  43     0.040648671898346
  44     -0.36917208336145
  45     0.018744975755933
  46      -0.2323468734946
  47    -0.027887657408278
  48     -0.87147593774945
  49      -1.8063669250501