[Molden Format]
made by pyscf v[2.13.1]
[Atoms] (AU)
O   1   8     0.21099695469856     0.00000000000000     2.15462460678861
N   2   7    -0.44776862100326     0.00000000000000    -0.03589262653049
H   3   1     1.18163474748449     0.00000000000000    -1.17386889907833
[GTO]
1 0
 s    8 1.00
                 11720  0.00070964594651845
                  1759  0.0054672722921914
                 400.8   0.027823118610189
                 113.7    0.10474773971146
                 37.03    0.28292084635691
                 13.27    0.44849523869833
                 5.025    0.27081688521277
                 1.013    0.01545029160744
 s    8 1.00
                 11720  -0.00031444341168873
                  1759  -0.0024821376810179
                 400.8  -0.012316355381583
                 113.7  -0.050538917343672
                 37.03   -0.13938490331632
                 13.27   -0.32507749481778
                 5.025   -0.22984830758785
                 1.013     1.0953793467883
 s    1 1.00
                0.3023                   1
 s    1 1.00
               0.07896                   1
 p    3 1.00
                  17.7   0.062679166281506
                 3.854    0.33353656587936
                 1.046    0.74123964163973
 p    1 1.00
                0.2753                   1
 p    1 1.00
               0.06856                   1
 d    1 1.00
                 1.185                   1
 d    1 1.00
                 0.332                   1

2 0
 s    8 1.00
                  9046  0.00069961741342552
                  1357  0.0053860546299287
                 309.3   0.027391021189057
                 87.73    0.10315059198201
                 28.56    0.27857066331743
                 10.21    0.44829484945412
                 3.838    0.27808592839527
                0.7466   0.015431561233271
 s    8 1.00
                  9046  -0.00030499009595337
                  1357  -0.0024080263785077
                 309.3   -0.01194444872518
                 87.73  -0.048925992909017
                 28.56   -0.13447272472496
                 10.21   -0.31511257770011
                 3.838   -0.24285783254964
                0.7466     1.0943822068542
 s    1 1.00
                0.2248                   1
 s    1 1.00
               0.06124                   1
 p    3 1.00
                 13.55   0.058905676772132
                 2.917    0.32046110671427
                0.7973    0.75304206179207
 p    1 1.00
                0.2185                   1
 p    1 1.00
               0.05611                   1
 d    1 1.00
                 0.817                   1
 d    1 1.00
                  0.23                   1

3 0
 s    3 1.00
                 13.01   0.033498726389998
                 1.962    0.23480080117413
                0.4446     0.8136829578829
 s    1 1.00
                 0.122                   1
 s    1 1.00
               0.02974                   1
 p    1 1.00
                 0.727                   1
 p    1 1.00
                 0.141                   1

[5d]
[7f]
[9g]

[MO]
 Sym= A
 Ene=               0
 Spin= Alpha
 Occup=    1.00000
   1    -0.00098855582430633
   2    -0.012042053438621
   3    -0.032205960578153
   4    -0.028400360881772
   5      0.51515151597902
   6    -1.3993696085455e-15
   7    -0.096471816703117
   8      0.40435745373993
   9    -1.0185453625566e-15
  10     -0.06787456101094
  11     0.087435042103773
  12    6.8776799847368e-16
  13    -0.010095965020208
  14    -0.0019502458059902
  15    -0.0016375239705993
  16    1.4899029190735e-16
  17    -0.00063491405392997
  18    5.0706241322232e-17
  19    0.0010055997967808
  20    -0.012553812342379
  21    -1.2336212447347e-17
  22    -0.0040841566242464
  23    -1.2008147363889e-16
  24    0.0021775882519339
  25      0.11672331948197
  26      0.27148252247004
  27      0.12964880154239
  28     -0.37348945873851
  29    -1.0275008210037e-15
  30    -0.033275674093157
  31     -0.27093075013118
  32    -6.3982492107788e-16
  33    -0.00025696075756434
  34    -0.050233091893945
  35    -1.1076196427291e-15
  36    -0.0034010492944428
  37    -0.010636102554525
  38     0.025458312988487
  39    -1.51596618622e-16
  40    -0.0094287557918486
  41    3.271682951159e-17
  42      0.01309930166715
  43    0.0005498472512203
  44    -1.4718603041851e-16
  45    -0.0074199942039328
  46    -2.3217641141126e-16
  47     -0.26335675047777
  48     -0.14064069212621
  49    -0.024174121800677
  50     0.010791382294121
  51    6.6288916180318e-18
  52    -0.014226310371212
  53    -0.0069985465979714
  54    1.0219698734255e-16
  55     0.018980580277882
 Sym= A
 Ene=               1
 Spin= Alpha
 Occup=    1.00000
   1    0.00047370562529962
   2       -0.007511987119
   3    -0.013925434400594
   4    -0.0055434651140501
   5     -0.37552751161741
   6    2.7906376977429e-14
   7      0.21783205415835
   8     -0.23075744317057
   9    2.0457371360605e-14
  10      0.15014870196325
  11    -0.0076341949446046
  12    2.7713406918114e-15
  13    0.0097637074638607
  14    -0.012426466164271
  15     0.014450339049071
  16    -1.5632367003095e-15
  17    0.0044160853484749
  18    -4.5151061094699e-16
  19    -0.015615560393299
  20     0.015658387118354
  21    -2.8650978574972e-15
  22    0.0015290376283749
  23    -5.4834251371433e-16
  24    0.0040630579746887
  25       0.1547405351518
  26      0.25435383842195
  27     0.024043935666126
  28     -0.40229284114204
  29    2.2018209844043e-14
  30    -0.083517602980593
  31     -0.19052282867725
  32    1.2334490501337e-14
  33    -0.043247160851772
  34    -0.017628664466053
  35    3.4834426801971e-16
  36    0.0020016199309814
  37    0.0098284385133379
  38    -0.023895786737021
  39    2.2673459944779e-15
  40    -0.018655509729727
  41    1.1987075450757e-15
  42    -7.1885426194902e-05
  43    0.0093018812564477
  44    -5.6186324533219e-16
  45    -0.0021854494863732
  46    4.8271520215491e-16
  47     -0.11215922615351
  48    -0.001649095054712
  49    0.0024185993421526
  50    0.0044104718354627
  51    6.261316683161e-16
  52    -0.011625632094371
  53    -0.0073894222213118
  54    3.2449140201281e-17
  55    0.0029233634358918
 Sym= A
 Ene=               2
 Spin= Alpha
 Occup=    1.00000
   1    0.0011912820084182
   2      0.12499161906176
   3      0.16599455516839
   4    0.0076905559590115
   5      -0.1140988949463
   6    -2.7681622446331e-12
   7     -0.14354802737376
   8    -0.078437609931244
   9    -1.9780066815823e-12
  10     -0.10957519631605
  11    0.0043091083774371
  12    -1.8479444899027e-13
  13    -0.0065789578089037
  14    0.0024023581191204
  15    0.0082668742732561
  16    1.6106467976492e-13
  17    0.0023458905930526
  18    4.2747357073093e-14
  19    0.0026329535251711
  20     0.012861789071437
  21    2.3280534356811e-13
  22    0.0015056743064842
  23    5.3919678645834e-14
  24    0.00012928429482955
  25     -0.25839475949844
  26     -0.32619434654629
  27    -0.029963923814116
  28    -0.095237437255122
  29    -2.193531095101e-12
  30      0.37917828324982
  31    -0.011270927216068
  32    -1.3081288775173e-12
  33     0.099397742999322
  34    -0.0055159068161016
  35    -1.019191532811e-13
  36    0.0018677415169084
  37     0.024948485499899
  38     0.025954570923044
  39    -2.2480832907964e-13
  40    -0.011218530899919
  41    -1.1684445581508e-13
  42    -0.019566275516057
  43    -0.0087472338879037
  44    1.3025527356431e-14
  45     0.013026631568723
  46    -7.8527365027382e-14
  47     -0.34339054398447
  48    -0.051572780118206
  49    0.00018883957165772
  50     0.035606331373379
  51    -5.920610667334e-14
  52    -0.018776873833886
  53    -0.0041425198069925
  54    1.6498937299364e-14
  55    -0.0034653355595954
 Sym= A
 Ene=               3
 Spin= Alpha
 Occup=    1.00000
   1    2.9968703073772e-14
   2    2.8298442771722e-12
   3    4.0459463952763e-12
   4    6.2036520537567e-13
   5    2.1221370185671e-13
   6      0.46121976843488
   7    1.6504801258352e-12
   8    1.5754254358592e-14
   9      0.32974340462069
  10    6.027732479669e-13
  11    2.4306347163921e-15
  12     0.030802567338183
  13    -3.3717826556223e-14
  14    -9.1785606870131e-14
  15    -2.0246920125252e-14
  16    -0.026824120160976
  17    1.2989008109583e-14
  18    -0.0071124454579522
  19    -5.7085800903524e-14
  20    1.594953272254e-14
  21    -0.038877470563028
  22    9.1440536612298e-15
  23    -0.0090210235614492
  24    -6.0552218365866e-14
  25    -2.727816804379e-12
  26    -3.0503929757533e-12
  27    -3.866933935995e-13
  28    -6.1480109560137e-13
  29      0.36554341648903
  30    1.140486500881e-12
  31    -1.1249212520697e-13
  32      0.21781160050653
  33    -2.366605513137e-14
  34    -3.7842064149888e-14
  35     0.017054177082774
  36    -6.0277339786418e-14
  37    7.6013687169207e-14
  38    9.8131777162729e-14
  39     0.037460083469865
  40    -6.9332798091625e-14
  41     0.019463655437898
  42    -1.5711224942713e-13
  43    -1.4814786248847e-13
  44    -0.0022756620392066
  45    6.9968608908497e-14
  46     0.013052508618961
  47    -1.9685505349839e-12
  48    -1.1046687765852e-13
  49    1.4256630431773e-14
  50    2.2339687166653e-13
  51    0.0098714669262827
  52    -1.3472716060674e-13
  53    -5.6720041161064e-14
  54    -0.0027623694064091
  55    3.6978975275499e-14
 Sym= A
 Ene=               4
 Spin= Alpha
 Occup=    1.00000
   1     0.003685940604698
   2      0.34273106952388
   3      0.50108699761571
   4      0.09869909020087
   5      0.13873155105997
   6    -2.8687670794792e-12
   7      0.40022284382689
   8     0.074638485963846
   9    -2.0497953992853e-12
  10      0.19907158479581
  11    -0.0041543613429016
  12    -1.9190360678313e-13
  13    -0.00011603675913006
  14    -0.016654832431218
  15    -0.010817651517598
  16    1.6691932868092e-13
  17    -0.00012280214744189
  18    4.4274165282466e-14
  19    -0.011084622523325
  20    -0.0093896924578928
  21    2.4118780308673e-13
  22    0.00010878830785009
  23    5.5894518415278e-14
  24    -0.0098157191681659
  25     -0.17948806897149
  26     -0.17157807665985
  27    -0.039020721527533
  28    -0.008693722929245
  29    -2.2739075768333e-12
  30     -0.17822729453733
  31    -0.0096082124335296
  32    -1.3558382571728e-12
  33     -0.10225579079834
  34    -0.0017011930872787
  35    -1.0599352686344e-13
  36    -0.013134058441612
  37    -0.011079453845773
  38    -0.0089862419567314
  39    -2.330133156793e-13
  40    -0.00041913609570046
  41    -1.2108722185309e-13
  42    -0.0071609270772982
  43    -0.015727334561819
  44    1.3346010312772e-14
  45    -0.0016735923840851
  46    -8.1484295366554e-14
  47     0.015601453528606
  48     0.030940007599326
  49    0.0028212740909957
  50    0.0012768308801391
  51    -6.1332168446582e-14
  52    -0.0032945954984536
  53    -0.0044638212714209
  54    1.7155972832489e-14
  55     0.008902844027719
 Sym= A
 Ene=               5
 Spin= Alpha
 Occup=    1.00000
   1    0.0002513390637459
   2      0.31583734398445
   3      0.33338690217261
   4     0.014168188353277
   5    -0.058307082002401
   6    7.8231075476876e-14
   7     -0.21290676282975
   8    -0.032768413794688
   9    5.4964662019293e-14
  10     -0.13081268999313
  11    0.0024424796359535
  12    5.450804920824e-15
  13    0.0029689677795758
  14     0.019503519072103
  15    0.0099294251067398
  16    -4.5576699007931e-15
  17    0.00056336590207024
  18    -1.2299436345147e-15
  19     0.018476895523176
  20    0.0074842483972647
  21    -6.3212202912824e-15
  22    0.0017937193275163
  23    -1.3328370099203e-15
  24    0.0074274461511119
  25      0.30406822893516
  26       0.1232706326315
  27    -0.000915837145375
  28     0.071509468630113
  29    6.1989044226831e-14
  30      0.18674202863626
  31    -0.0051720236199234
  32    3.760597258214e-14
  33    -0.0020196883894061
  34    0.0019942521945645
  35    2.8045081528275e-15
  36    -0.0054876767557787
  37     0.026423444465991
  38     0.019837821356308
  39    6.3897785922171e-15
  40    0.0023613385338178
  41    3.2399686323034e-15
  42    -0.012054352822919
  43    0.0020484673307676
  44    1.4979063143296e-16
  45    -0.0074164746421695
  46    2.4939074603387e-15
  47     0.071666249942967
  48    -0.032286857640305
  49    -0.0013794047368069
  50    -0.013358507516821
  51    1.6867486492552e-15
  52     0.012009212559309
  53     0.012175480429103
  54    -6.7875538445749e-16
  55    -0.011391427969585
 Sym= A
 Ene=               6
 Spin= Alpha
 Occup=    1.00000
   1     -0.23567548396058
   2    -0.00050733587570441
   3    0.0020459646623685
   4    -2.7703229633861e-05
   5    0.00098460834669301
   6    -6.5642952865006e-16
   7    0.0036501735960049
   8    0.00072644157638597
   9    -3.0662933955874e-15
  10    0.0021503569229973
  11    -5.6997126812715e-05
  12    -1.9534150715752e-15
  13    0.00016340456677736
  14    -0.00055299806500358
  15    -0.00022497905913839
  16    -7.0736092985597e-16
  17    -0.00011559783834816
  18    -2.2682575135694e-16
  19    -0.00085200275382472
  20    -0.00053117919836458
  21    2.8848330875504e-15
  22    -0.00015699750788251
  23    6.9449442717447e-16
  24      0.97352638609782
  25    -0.00096798654446217
  26    -0.010110144657642
  27    -0.0025658288868479
  28    0.0014560361618663
  29    -4.7868784434972e-16
  30    -0.00034297396695283
  31    -0.0026569439392098
  32    3.1318431816062e-15
  33    -0.00058365076635651
  34    -0.00065520180656001
  35    1.4797795243566e-15
  36    0.00032503923194537
  37    0.00043783682138188
  38    -4.652106570264e-06
  39    9.8387625001839e-17
  40    0.00050417952949985
  41    2.066633097743e-17
  42    -0.00069060554327306
  43    -0.00035001936777385
  44    2.3163476242402e-15
  45    -0.00032257779730217
  46    1.0475708616025e-15
  47    -0.00067747771617841
  48    0.0057886457567167
  49    0.00064790786391622
  50    0.00061820785963411
  51    -1.3038971495944e-16
  52    -0.00039610697412537
  53    -0.0018654091921137
  54    -3.7187137868724e-16
  55    0.0015989504675658
 Sym= A
 Ene=               7
 Spin= Alpha
 Occup=    1.00000
   1      0.97401835703639
   2    -0.0018933886625127
   3    -0.021984156148698
   4    -0.0056822909854042
   5    4.5513589076502e-05
   6    2.4300900674943e-16
   7    5.5680328832356e-05
   8    0.0024770626959956
   9    -6.1475778118673e-16
  10    0.0095420645798814
  11    0.00029254882788442
  12    -5.6435495841199e-16
  13    0.00082471699125341
  14    3.180171902163e-06
  15    -7.6440594938771e-05
  16    -1.8569619377718e-16
  17    0.00027843635946175
  18    -8.6808415637855e-17
  19    -0.0022222347506439
  20    -0.0010876431533903
  21    7.8194278947101e-16
  22    -0.00018761946436342
  23    1.6990176067963e-16
  24      0.23580355225068
  25    -0.0027618973243071
  26    0.0089432319345076
  27     0.003037578479152
  28    6.0629338393256e-06
  29    1.8007832400038e-16
  30    -0.001666534846643
  31    0.0019656232700739
  32    1.0689145797456e-15
  33    0.0088889092676582
  34    -8.5762482980422e-05
  35    3.9578897961529e-16
  36    0.0012656437215309
  37    -0.00042318362967382
  38    -0.0004492988924667
  39    4.6583388407706e-17
  40    0.00011698513600524
  41    1.8375384540882e-17
  42    0.0022280727974135
  43    0.0015711575853361
  44    6.5462064253024e-16
  45    0.00028397376889532
  46    3.0942174218535e-16
  47    -0.00068060782406784
  48    0.0033283789165971
  49    5.5667214157892e-06
  50    0.00035584537221687
  51    -2.6092583928442e-17
  52    -0.00042642317267624
  53    -0.0012304829397253
  54    -1.0082465966923e-16
  55    0.00063024303184246
 Sym= A
 Ene=               8
 Spin= Alpha
 Occup=    0.00000
   1    0.00089896098100821
   2    -0.020066033570052
   3    -0.046064583368868
   4      -1.5707214130142
   5    -0.025817079436605
   6    6.8071374007087e-15
   7      -0.1381871483455
   8     0.037924879028235
   9    6.7980731809018e-15
  10    -0.059832653510388
  11      0.22686394229476
  12    -8.025837822971e-14
  13       2.0692760213239
  14     0.014375973173206
  15    0.0088695010093837
  16    -3.367062650921e-16
  17    0.0035800900196549
  18    -5.2108940855206e-17
  19    -0.042244041890576
  20    -0.025748223344123
  21    2.165555215671e-15
  22    -0.014193889443825
  23    1.6117538856126e-16
  24    -0.0043523889569633
  25     -0.03013334383891
  26      0.15401242923787
  27        3.744459579684
  28    -0.034756913182828
  29    -6.9381613597897e-15
  30     0.088882360289644
  31    -0.017344034698345
  32    -3.9549589731869e-15
  33       0.1417581706607
  34      0.79930420581094
  35    9.7308059244671e-14
  36     -0.89168838599048
  37     0.025935277137479
  38      0.01443331448499
  39    -5.3329017803927e-16
  40    -0.001358576447886
  41    -7.0893728096364e-16
  42     0.030579769503028
  43    -0.054473229491032
  44    1.1048868643289e-15
  45    0.0094531982946214
  46    3.723059002262e-15
  47    -0.0055359358934904
  48     -0.24210849312061
  49      -1.5866739617121
  50    0.0031822732582341
  51    1.0515391119394e-16
  52    -0.018670642977706
  53    -0.038690260012433
  54    -1.1563757756554e-14
  55     0.026046910169973
 Sym= A
 Ene=               9
 Spin= Alpha
 Occup=    0.00000
   1     0.013485942431488
   2     0.098176783533066
   3    0.0018978102884812
   4      0.75982274504127
   5     0.049862560212821
   6    -5.3273292428812e-14
   7      0.13464208190996
   8     0.013267439240649
   9    -2.9620887286017e-14
  10    -0.070649134755777
  11     -0.26932533390123
  12    -1.0846142037004e-15
  13     -0.53658144759195
  14    0.0035109728927938
  15    0.0082727451666573
  16    1.6995535196169e-15
  17    -0.0068936384062264
  18    -7.2457259917551e-17
  19    -0.027770307561729
  20    -0.014464751454617
  21    -9.1297807482729e-15
  22     0.010339748414721
  23    -1.607834784236e-15
  24    -0.011934770619459
  25     -0.11440610729238
  26     -0.38133341482474
  27    -0.084711233588134
  28     -0.11825850035197
  29    2.3623838303292e-14
  30      0.20157571931126
  31    0.00014033845060555
  32    2.0070039882437e-14
  33     0.085034036968981
  34       0.3097014268071
  35    9.880466198631e-14
  36      -1.0007822845407
  37    -0.00041999671932998
  38    0.0045940665740814
  39    -2.6254981686923e-15
  40    0.0070468362850455
  41    -2.7755100105943e-16
  42      0.15743563857003
  43     0.039087788290428
  44    -1.1276185029187e-14
  45     0.041784218480691
  46    2.1022351511931e-15
  47      0.03796153813396
  48     -0.10640239088803
  49     -0.41981844313664
  50     0.019156833806283
  51    1.4157307308034e-15
  52     -0.01430072282703
  53     -0.11456742848274
  54    -1.1627870010931e-14
  55     -0.11383283548662
 Sym= A
 Ene=              10
 Spin= Alpha
 Occup=    0.00000
   1     0.026028399006729
   2     0.091172836129339
   3     0.016930039407052
   4       -1.268021843458
   5     0.099717776897477
   6    1.6796468185721e-12
   7        0.133615879365
   8      0.34444200307638
   9    7.1767117672278e-13
  10    -0.084369404990776
  11      0.34784828865902
  12     1.14690295992e-12
  13    -0.036293213256457
  14     0.026498526887795
  15    -0.031548914065176
  16    1.1977376002924e-13
  17    -0.023506227644486
  18    -3.3127360308105e-13
  19     -0.10339832358066
  20      -0.1126185311773
  21    1.6482425719816e-13
  22    -0.0079294359325602
  23    1.536178286655e-13
  24     0.068278998334697
  25      0.18471517686672
  26      0.22910391383134
  27       1.6953549527597
  28      0.25580549864506
  29    -2.5037302298418e-13
  30     -0.16430661514145
  31      0.12140818494421
  32    -8.208318501674e-13
  33      0.57847390743308
  34     -0.23686779982734
  35    -4.1373300546234e-12
  36       0.8844246859277
  37    -0.0070771865592301
  38      0.03498713921037
  39    -6.9511419917262e-15
  40    -0.006441518650093
  41    5.4808609098591e-13
  42     -0.03824309671303
  43     -0.30825472145609
  44    9.1385624302444e-13
  45     0.027873569392503
  46    7.0118801967549e-13
  47     -0.16096526205773
  48     -0.13854360603792
  49     -0.96628273969433
  50    -0.066187410082449
  51    -4.1022682271807e-14
  52    -0.0055811929780132
  53     -0.33371235603079
  54    -7.4565139458254e-13
  55      -1.0631050445678
 Sym= A
 Ene=              11
 Spin= Alpha
 Occup=    0.00000
   1    1.162577357988e-13
   2    8.1830630828492e-14
   3    1.7288495270754e-12
   4    1.2215062478264e-12
   5    1.056950494957e-12
   6     -0.33020696817919
   7    -2.6576701660719e-13
   8    8.8073653304546e-13
   9     -0.13075439209729
  10    -1.3320155067276e-12
  11    9.1503879388308e-12
  12     -0.20091732214725
  13    -5.2576891517507e-12
  14    7.2693621758551e-14
  15    -3.8171813187148e-13
  16    -0.024891347756281
  17    -1.7296529283604e-13
  18     0.068866628152052
  19    -1.4149277665556e-12
  20    1.1581754991941e-12
  21    -0.032982669897757
  22    5.4170396683573e-13
  23    -0.032339889799976
  24    4.3811551007828e-13
  25    6.3781850548195e-13
  26    1.7586186494081e-12
  27    5.4519828067132e-12
  28    1.8480287895098e-12
  29     0.046541268934381
  30    -6.2876477037303e-13
  31    2.3453049893851e-12
  32      0.14889669436651
  33    1.9537426227152e-12
  34    -8.3974570328191e-12
  35      0.79723859568682
  36    8.1599978657011e-12
  37    -6.0964274422806e-14
  38    8.8820718711214e-13
  39    3.3196906732942e-05
  40    -7.3227896718206e-15
  41     -0.11184344080526
  42    -2.4000640890566e-12
  43    -4.3459253708243e-12
  44     -0.19143917037855
  45    5.7126840937743e-13
  46     -0.15199452718516
  47    -8.2661206549107e-13
  48    -5.7668559608994e-12
  49    -8.4367841466201e-13
  50    -4.239270127749e-13
  51    0.0072048055964586
  52    -2.8394831333154e-15
  53    1.0555943095359e-13
  54      0.15629533582834
  55    -1.3411612198159e-11
 Sym= A
 Ene=              12
 Spin= Alpha
 Occup=    0.00000
   1    0.0089842985401295
   2     0.056951624150887
   3     -0.44742773542991
   4      -2.5387333598098
   5    -0.085777893836855
   6    -2.1821142350245e-12
   7      0.18012164171983
   8      0.32195561983669
   9    -7.2581234649996e-13
  10      0.14835547103877
  11      -1.1543119804858
  12    -1.315950982953e-12
  13       1.0422282780433
  14     0.015454018584618
  15     0.032076517494973
  16    -1.7866065365614e-13
  17    0.0043921303678613
  18    5.1695212375109e-13
  19      0.10639799634658
  20     -0.38710259023556
  21    -2.1045608802624e-13
  22     -0.12498513740785
  23    -2.203671459242e-13
  24    0.0037479993677688
  25     0.056437910842315
  26     -0.16711726411464
  27       1.6532934114752
  28     -0.10774733578454
  29    1.0756749617853e-13
  30    -0.038700415830421
  31       -0.365273477239
  32    8.1828975895827e-13
  33      0.56165563746946
  34       1.3623839783592
  35    5.669034033593e-12
  36     0.076938656501138
  37     0.006438362759813
  38     -0.12981885858707
  39    1.4788280959089e-14
  40     -0.01175074796461
  41    -8.4864858256416e-13
  42      0.40166003454896
  43      0.39663784701986
  44    -1.4576550971283e-12
  45    -0.068231558134946
  46    -1.1720247063863e-12
  47    -0.029493015565752
  48       1.1681589572172
  49     -0.52600361119154
  50    0.0022384912891697
  51    3.9433300264481e-14
  52    -0.016936671180435
  53     -0.47217657714341
  54    1.2015621154515e-12
  55       1.1088140425901
 Sym= A
 Ene=              13
 Spin= Alpha
 Occup=    0.00000
   1     0.064046566490857
   2        0.219934172651
   3     -0.61812287996958
   4     -0.87731537773069
   5     0.029893611250654
   6    -9.9710583485163e-14
   7     -0.21128057215509
   8     -0.76886044157191
   9    -4.4895131002783e-14
  10      0.14030821867969
  11      0.54124410559596
  12    2.0680206194693e-13
  13     0.039956008008814
  14      0.15000342721883
  15     -0.28346836282928
  16    -3.2385393890829e-14
  17     -0.10233901819432
  18    7.7260008420959e-14
  19     -0.50273108245481
  20       0.6720999462959
  21    7.756998915136e-14
  22      0.23124722457645
  23    6.162257914417e-14
  24     -0.26247470126985
  25      -0.6689119206657
  26      0.73546437576537
  27       1.6496779612668
  28     -0.12400893929545
  29    -2.1618939253837e-13
  30     -0.29790310359425
  31      0.84304283656582
  32    -2.1566070971864e-13
  33     0.024867453630455
  34      0.14867579803283
  35    2.0723439428609e-13
  36      0.25700802900504
  37    -0.037429325398596
  38     -0.21845455018066
  39    4.9310774915885e-14
  40    -0.089188675881147
  41    -5.8834413150552e-14
  42      0.23691855004212
  43       0.5734314448431
  44    8.5441475229561e-14
  45    0.0082136390864491
  46    -3.1965272989611e-13
  47      0.23804314090592
  48     -0.76175019067672
  49     -0.63293750207678
  50     0.050848165119488
  51    7.5511524793598e-15
  52       0.1433180108818
  53     -0.10958630728455
  54    6.1404555028768e-13
  55      0.17626654689824
 Sym= A
 Ene=              14
 Spin= Alpha
 Occup=    0.00000
   1     -0.38420641077991
   2     -0.63679455883607
   3       3.5440741518661
   4       4.1271171710385
   5     -0.15728535696515
   6    -4.1537312618957e-13
   7     0.033375567790306
   8     -0.80514919469016
   9    1.1627629773461e-13
  10      -2.9291020579518
  11     0.058870327240947
  12    -2.1163496964482e-14
  13     -0.98339075471038
  14    -0.0097968747766126
  15      0.30836027670456
  16    2.7073399609631e-13
  17     0.056295781935566
  18    -2.4409101458495e-13
  19      0.92481819703913
  20      0.29114489129442
  21    6.091793075613e-14
  22     0.071457650944862
  23    9.9410392463649e-14
  24      0.27583398514603
  25      0.61268741641987
  26      -4.8789438230724
  27      -2.4296891824868
  28     -0.45520605846321
  29    9.6326122656167e-13
  30     -0.99315435207736
  31     -0.18372297331592
  32    -2.941927223151e-13
  33       -1.943235803112
  34     -0.52774302092965
  35    -4.8852993028373e-14
  36     -0.78198765162636
  37     -0.43393253440122
  38     -0.40119324538615
  39    4.4438018493141e-13
  40      0.13388108382422
  41    -5.1260726754294e-13
  42     -0.41968451122181
  43     -0.04207404175955
  44    -1.5507455358761e-13
  45    -0.052117375095642
  46    -1.7808147114958e-15
  47      -0.1476412341106
  48     -0.37072454689418
  49    0.00048606284448971
  50     0.088817483491134
  51    -5.2340443365092e-14
  52      0.13779733379581
  53     0.035291062760723
  54    -1.9301700950398e-13
  55     -0.55405616718492
 Sym= A
 Ene=              15
 Spin= Alpha
 Occup=    0.00000
   1      -0.1693951327354
   2     -0.33870503072738
   3       1.2013689313141
   4       0.8387459741346
   5      0.71064240249663
   6    4.526147439029e-13
   7     -0.27305132066555
   8      -2.0136898375071
   9    -6.9866726532434e-13
  10    -0.041945583647007
  11     -0.17389939862533
  12    -1.5346738980405e-14
  13     -0.24232822013793
  14      0.29672876164466
  15     -0.67416933282735
  16    -2.4485921560023e-13
  17     -0.12268634657885
  18    8.0671696659724e-13
  19     -0.16584408646449
  20      0.93809390707457
  21    4.0211848475452e-13
  22      0.26154352181461
  23    -1.110259202197e-13
  24      0.14305924652281
  25      0.32391398992967
  26      -1.8852366978662
  27      -1.1962734966579
  28     -0.11446366972598
  29    2.2830849568213e-13
  30     -0.22275053995833
  31      0.92244146045359
  32    5.0350661740282e-14
  33     -0.65992045297297
  34    -0.064044778169523
  35    -1.0038076095936e-13
  36      -0.1113649505626
  37     -0.13358416265231
  38    -0.027813254820893
  39    5.2829501579044e-14
  40     0.017057851645465
  41    -6.3180545179769e-14
  42     -0.62453525114864
  43      0.61264301348832
  44    2.1822421898355e-13
  45       0.3505318215106
  46    -1.203224061305e-13
  47     -0.19043368223611
  48      0.88492379383834
  49      0.26393784117589
  50    -0.085463622697009
  51    7.5228650343793e-14
  52    -0.0022330308995469
  53     -0.36779447248612
  54    3.4086840187238e-13
  55     0.042746009031591
 Sym= A
 Ene=              16
 Spin= Alpha
 Occup=    0.00000
   1    0.0027735611315594
   2    0.0054133565599857
   3    -0.013140149697666
   4     0.096739064592444
   5    0.00048069978744151
   6     -0.21821274168973
   7     0.012485007963821
   8    -0.0026287386166446
   9     -0.37415804757645
  10     0.018586731911887
  11     0.058686770835482
  12       2.0640723653563
  13    -0.0037817653545767
  14    0.0011252189442302
  15    -0.0032104742512027
  16     0.017255058281517
  17    -0.00038540889109487
  18    -0.0010524158703345
  19    -0.0050069351732188
  20    -0.012850311675501
  21    -0.073074299283533
  22     -0.00398132981719
  23    -0.014308957496536
  24    0.0025928283534481
  25     0.011689746951741
  26      0.01671646526294
  27     -0.26877624255187
  28     0.015578978687091
  29      0.14370028712284
  30    0.0089547885589876
  31     -0.02023095095146
  32     0.075669972027191
  33     0.018156594980489
  34     -0.10635638433115
  35      -1.7025013996516
  36     -0.04321252661273
  37    0.0038421163075866
  38    0.0062198706246042
  39    -0.0034450286753374
  40    -0.00039130537152847
  41      0.01654606898022
  42    -0.0015782372161652
  43    -0.0088745000261444
  44    -0.098390612434297
  45    -0.0020793852983687
  46    -0.042211888550985
  47    -0.0049625651659626
  48     0.096195589957046
  49     0.094862138378281
  50    -0.003766310222072
  51     0.003553338817739
  52    -0.00087700033303488
  53    -0.037841108251362
  54      0.12939979864565
  55     0.032161893456413
 Sym= A
 Ene=              17
 Spin= Alpha