[Molden Format]
made by pyscf v[2.13.1]
[Atoms] (AU)
O   1   8     0.21099695469856     0.00000000000000     2.15462460678861
N   2   7    -0.44776862100326     0.00000000000000    -0.03589262653049
H   3   1     1.18163474748449     0.00000000000000    -1.17386889907833
[GTO]
1 0
 s    8 1.00
                 11720  0.00070964594651845
                  1759  0.0054672722921914
                 400.8   0.027823118610189
                 113.7    0.10474773971146
                 37.03    0.28292084635691
                 13.27    0.44849523869833
                 5.025    0.27081688521277
                 1.013    0.01545029160744
 s    8 1.00
                 11720  -0.00031444341168873
                  1759  -0.0024821376810179
                 400.8  -0.012316355381583
                 113.7  -0.050538917343672
                 37.03   -0.13938490331632
                 13.27   -0.32507749481778
                 5.025   -0.22984830758785
                 1.013     1.0953793467883
 s    1 1.00
                0.3023                   1
 s    1 1.00
               0.07896                   1
 p    3 1.00
                  17.7   0.062679166281506
                 3.854    0.33353656587936
                 1.046    0.74123964163973
 p    1 1.00
                0.2753                   1
 p    1 1.00
               0.06856                   1
 d    1 1.00
                 1.185                   1
 d    1 1.00
                 0.332                   1

2 0
 s    8 1.00
                  9046  0.00069961741342552
                  1357  0.0053860546299287
                 309.3   0.027391021189057
                 87.73    0.10315059198201
                 28.56    0.27857066331743
                 10.21    0.44829484945412
                 3.838    0.27808592839527
                0.7466   0.015431561233271
 s    8 1.00
                  9046  -0.00030499009595337
                  1357  -0.0024080263785077
                 309.3   -0.01194444872518
                 87.73  -0.048925992909017
                 28.56   -0.13447272472496
                 10.21   -0.31511257770011
                 3.838   -0.24285783254964
                0.7466     1.0943822068542
 s    1 1.00
                0.2248                   1
 s    1 1.00
               0.06124                   1
 p    3 1.00
                 13.55   0.058905676772132
                 2.917    0.32046110671427
                0.7973    0.75304206179207
 p    1 1.00
                0.2185                   1
 p    1 1.00
               0.05611                   1
 d    1 1.00
                 0.817                   1
 d    1 1.00
                  0.23                   1

3 0
 s    3 1.00
                 13.01   0.033498726389998
                 1.962    0.23480080117413
                0.4446     0.8136829578829
 s    1 1.00
                 0.122                   1
 s    1 1.00
               0.02974                   1
 p    1 1.00
                 0.727                   1
 p    1 1.00
                 0.141                   1

[5d]
[7f]
[9g]

[MO]
 Sym= A
 Ene=               0
 Spin= Alpha
 Occup=    1.00000
   1    -0.00090980225834411
   2    -0.014099188172927
   3    -0.034513046502371
   4     -0.02828115474934
   5      0.48864194740935
   6    -1.1475188721742e-12
   7    -0.073255971604418
   8      0.38787810903967
   9    -8.2039332491957e-13
  10     -0.05223981621706
  11     0.086463817517558
  12    -7.5794331880894e-14
  13    -0.0092091636015698
  14    -0.0031258411684157
  15    -0.00082040386261901
  16    6.680966213919e-14
  17    -0.00034927318643138
  18    1.7722403034833e-14
  19    -0.00038296278804855
  20    -0.011683398564511
  21    9.6564128322083e-14
  22    -0.0039929226572432
  23    2.2299375369564e-14
  24    0.0024023506654251
  25      0.13071065784981
  26      0.29469098109548
  27      0.13140399344311
  28      -0.4011943025996
  29    -9.0941094556223e-13
  30    -0.049037037609523
  31     -0.28430705338775
  32    -5.4195269580542e-13
  33    -0.0061852877254983
  34      -0.0513197775633
  35    -4.3542951875295e-14
  36    -0.0033415804225338
  37    -0.010544833399282
  38     0.022911858224538
  39    -9.3239432694785e-14
  40    -0.010598276094677
  41    -4.8332033544797e-14
  42     0.013446673459431
  43    0.0013110036620974
  44    5.4811706951152e-15
  45    -0.0078017988839728
  46    -3.2689342324363e-14
  47     -0.26436791728361
  48     -0.13895681234692
  49    -0.023895607695797
  50     0.010446416353045
  51    -2.4522061926508e-14
  52    -0.014759401044754
  53    -0.0075343912690333
  54    6.9837160127227e-15
  55     0.019320198537907
 Sym= A
 Ene=               1
 Spin= Alpha
 Occup=    1.00000
   1    7.7326574589362e-14
   2    6.5277297366521e-12
   3    1.1807669856921e-11
   4    3.9638062989037e-12
   5    3.5625522787665e-11
   6      0.46121976843488
   7    1.3153746991735e-11
   8     2.22295808381e-11
   9      0.32974340462069
  10    5.953524921156e-12
  11    5.3399981019231e-13
  12     0.030802567338183
  13    -3.6744930844342e-13
  14    -3.6673316437286e-13
  15    -1.7600914108868e-12
  16    -0.026824120160976
  17    -3.6257437980055e-13
  18    -0.0071124454579522
  19    7.5107519217265e-14
  20    -1.9898753715106e-12
  21    -0.038877470563028
  22    -1.8820858641877e-13
  23    -0.0090210235614492
  24    -4.9016505517148e-13
  25    -8.7898673413636e-12
  26    -8.2752328099818e-12
  27    -1.0543036875113e-12
  28    2.3390785443979e-11
  29      0.36554341648903
  30    -2.1209102528465e-11
  31    9.3628117808217e-12
  32      0.21781160050653
  33    -6.1348029801963e-12
  34    8.5137829874924e-13
  35     0.017054177082774
  36    -7.1269010939896e-13
  37    -2.4452424576745e-12
  38    -2.0966456063335e-13
  39     0.037460083469865
  40    1.4218190640265e-12
  41     0.019463655437898
  42    7.1891387832148e-13
  43    -8.7071491263315e-13
  44    -0.0022756620392066
  45    -4.4511010808638e-13
  46     0.013052508618961
  47    1.8973798626214e-11
  48    3.1839824948925e-12
  49    -1.4443357589815e-13
  50    -1.4555970496275e-12
  51    0.0098714669262827
  52    1.0722735123905e-12
  53    2.0968142261213e-13
  54    -0.0027623694064091
  55    6.0958925858026e-13
 Sym= A
 Ene=               2
 Spin= Alpha
 Occup=    1.00000
   1    0.0052917459317628
   2     0.029498893420744
   3      0.09929323322613
   4     0.053165747069817
   5     0.039169703163757
   6    -1.80914174091e-11
   7      0.49246716679656
   8     0.017456554713413
   9    -1.2933608748183e-11
  10      0.29071124017003
  11    -0.012150756001385
  12    -1.2083280938708e-12
  13    0.0062520375265874
  14    -0.023038101790605
  15    -0.010885892013761
  16    1.0521990390264e-12
  17    -0.00026858419492921
  18    2.7897253334931e-13
  19    -0.020356888879847
  20    -0.010991129484992
  21    1.5246546295588e-12
  22    -0.00083037526185416
  23    3.5378405436266e-13
  24    -0.00039693701567686
  25    -0.028257859331718
  26       0.1076173808897
  27    -0.0047694869310169
  28    -0.085437574807406
  29    -1.4338920403033e-11
  30     -0.43299798850524
  31    -0.046076335801647
  32    -8.5443411914656e-12
  33     -0.13772601898283
  34    -0.0019775227400983
  35    -6.6928657555675e-13
  36    -0.0067897576265364
  37    -0.028046266603872
  38    -0.036986924865969
  39    -1.4694085141875e-12
  40    0.00010019730474245
  41    -7.6343897946038e-13
  42     0.010860754631583
  43    -0.0027492448502292
  44    8.8817241435405e-14
  45    -0.0065195243908442
  46    -5.1224770629545e-13
  47      0.16427974024028
  48     0.067708424691621
  49    0.0039698465052647
  50    -0.014593893276811
  51    -3.8718828731044e-13
  52    0.0016456925621101
  53    -0.006866894163023
  54    1.0851761226114e-13
  55     0.012064304997948
 Sym= A
 Ene=               3
 Spin= Alpha
 Occup=    1.00000
   1    0.00010034033788048
   2      0.01430428378663
   3     0.032909874477618
   4     0.017125506652029
   5      0.44438383136224
   6    -3.3851986453913e-11
   7    -0.092702085451516
   8      0.27921095874537
   9    -2.4202600568227e-11
  10     -0.07442820868556
  11     0.010700041636282
  12    -2.261687184315e-12
  13    -0.0080274153207878
  14    0.0072378395716308
  15    -0.018304853644514
  16    1.9687425826396e-12
  17    -0.0049138990794153
  18    5.2204135027122e-13
  19     0.011330543339618
  20    -0.021138666410826
  21    2.8539810602398e-12
  22    -0.0021912691987345
  23    6.6212515059816e-13
  24    -0.0078309419225012
  25     -0.10485132074835
  26      -0.1598369632773
  27    -0.012020057611119
  28      0.37705619556352
  29    -2.6829721005477e-11
  30    -0.072169716853852
  31      0.16335637084537
  32    -1.5985809511645e-11
  33    -0.0055667570551397
  34     0.014575515482979
  35    -1.2512591890534e-12
  36    -0.0046220350746421
  37    -0.020141978142628
  38     0.014143129319272
  39    -2.7494579339729e-12
  40     0.020013589337176
  41    -1.4285747735737e-12
  42     0.005918377780267
  43    -0.0088612523058975
  44    1.674361360875e-13
  45    -0.0022064748995272
  46    -9.5774350046119e-13
  47      0.18844011491905
  48     0.014131645268749
  49    -0.0033423270042242
  50    -0.013092931467445
  51    -7.24558105439e-13
  52     0.014441592869404
  53     0.006451784633359
  54    2.0259598697766e-13
  55    0.0014428564285535
 Sym= A
 Ene=               4
 Spin= Alpha
 Occup=    1.00000
   1     0.005055002178913
   2      0.14768451880501
   3      0.25444580830075
   4     0.051877859719373
   5     0.065405547151069
   6    -1.6566413359766e-12
   7      0.15966167216141
   8     0.028886427405597
   9    -1.1827086611425e-12
  10     0.055626031670584
  11    0.0026056535206397
  12    -1.1096373313073e-13
  13    -0.0074783572446497
  14    -0.013243828906133
  15    -0.0052191368730962
  16    9.6424387506754e-14
  17    0.00091780992708557
  18    2.5617725568426e-14
  19    -0.0093308688203963
  20    -0.00044270040932814
  21    1.3892091148373e-13
  22    0.00020190559742141
  23    3.2054957563513e-14
  24    0.0090280689892174
  25     -0.42323771719603
  26     -0.40678813155201
  27    -0.042824327301303
  28    -0.062742734585695
  29    -1.3127963577119e-12
  30      0.12382968653859
  31    0.0062738483185074
  32    -7.836449611435e-13
  33     0.026374957888768
  34    -0.0046324442606732
  35    -6.0764020310428e-14
  36    -0.0035992752720183
  37    0.00089210044051022
  38     0.010042854442917
  39    -1.3455566737684e-13
  40    -0.0074422055560743
  41    -6.9919134496399e-14
  42    -0.013258788307884
  43    -0.016650902753307
  44    7.1570378852196e-15
  45     0.011875391757845
  46    -4.7237994238932e-14
  47     -0.26723337728928
  48    -0.011646855648988
  49    0.0014358966951373
  50     0.032142676168737
  51    -3.5400918050234e-14
  52    -0.019347393325069
  53    -0.0095414134853611
  54    9.9034116965049e-15
  55    0.0066453978042129
 Sym= A
 Ene=               5
 Spin= Alpha
 Occup=    1.00000
   1    -0.0067470465337905
   2      0.45817337706471
   3      0.56062820112095
   4     0.065044932320587
   5    0.0026269532662072
   6    -3.8485371923119e-12
   7     0.029927989567261
   8    -0.0022494608713419
   9    -2.7514807240677e-12
  10    -0.007847952885788
  11    -0.00015568575081479
  12    -2.5692231321671e-13
  13    0.0022326110779355
  14    0.0073253427181927
  15    0.0037440982310237
  16    2.2388409530003e-13
  17    0.00074326276543119
  18    5.9356464573563e-14
  19    0.0093740388062988
  20    0.0028854457990558
  21    3.2417639322472e-13
  22      0.00174838952812
  23    7.5292109323064e-14
  24    -0.019874526124248
  25      0.14468385609091
  26    -0.0054638750691883
  27    -0.023271479612853
  28     0.034765521757161
  29    -3.050302159732e-12
  30     0.089779083961652
  31    -0.016479000256544
  32    -1.8176577286418e-12
  33    -0.049788988409743
  34    -0.00019947771630209
  35    -1.4235433810002e-13
  36    -0.011419139528681
  37     0.018664912657536
  38     0.013162783890463
  39    -3.1255490715726e-13
  40    0.00023884188662915
  41    -1.624768447837e-13
  42    -0.015557228492442
  43    -0.0070597882535672
  44    1.8892785332784e-14
  45    -0.0061541832456702
  46    -1.0888567396547e-13
  47     0.037652887884853
  48    -0.014882549489143
  49    0.00044979703215009
  50    -0.0075898495009857
  51    -8.2316721708803e-14
  52    0.0064844192078171
  53    0.0073453779427792
  54    2.2867679614885e-14
  55    -0.0050772773751406
 Sym= A
 Ene=               6
 Spin= Alpha
 Occup=    1.00000
   1    -0.076772230693696
   2    0.0057556619954128
   3    0.0048318012606839
   4    -0.00085849894345961
   5    0.00058515291031292
   6    -1.077770834718e-13
   7    -0.002276037342149
   8    0.0010476425729891
   9    -7.9779786709775e-14
  10    0.00028197780477984
  11    5.1677722941209e-05
  12    -9.1702140731581e-15
  13    0.00040516924636793
  14    1.2589911951328e-05
  15    -3.0293651271306e-05
  16    5.5041097414581e-15
  17    -7.9018069635184e-05
  18    1.4138106379147e-15
  19    -0.00067581692291337
  20    -0.00059960625103399
  21    1.2018712715779e-14
  22    -0.00015188588775132
  23    2.8159858644419e-15
  24      0.99854600056537
  25    0.0087874823499316
  26    -0.0027900907210721
  27    -0.0017757311987167
  28    0.0046702793723578
  29    -8.5383160883351e-14
  30    0.0020444257259639
  31    -0.0020554176730954
  32    -4.7321140319829e-14
  33    0.00036663572709713
  34    -0.00053787508086187
  35    -2.4440434831259e-15
  36    0.00039340101242436
  37    0.0008855267598317
  38    0.00031402392031237
  39    -8.5988059350543e-15
  40    0.00069273174099632
  41    -4.5005952699688e-15
  42    -0.00047723480170475
  43    5.0269742924717e-05
  44    2.940678271163e-15
  45    -0.00055971628157887
  46    -1.9396667616782e-15
  47    0.0038172747291845
  48    0.0056947796569432
  49    0.00058968677591519
  50    3.6922407194913e-05
  51    -2.426742433789e-15
  52    2.479396605692e-05
  53    -0.0016625968741109
  54    2.5360302998981e-16
  55    0.0013785614011142
 Sym= A
 Ene=               7
 Spin= Alpha
 Occup=    1.00000
   1      0.99913816473642
   2    0.0023936320193052
   3    -0.017449264724957
   4    -0.005328826983898
   5    -0.00058986913162522
   6    3.6900266778209e-14
   7    -0.0028024611608541
   8    0.0020594019396886
   9    2.6009619869939e-14
  10    0.0076115744724545
  11    0.00033068494866686
  12    2.199608171103e-15
  13    0.00081588401460903
  14    0.00031179114865007
  15    6.7574671723571e-05
  16    -2.1959015362935e-15
  17    0.00029981271109178
  18    -6.1323816167364e-16
  19    -0.0018419879258772
  20    -0.00090723278184179
  21    -2.7695375375761e-15
  22    -0.00013835989857099
  23    -6.5662433984774e-16
  24      0.07675839670297
  25    0.00067277259680341
  26     0.011485476945372
  27    0.0033388417610936
  28    0.0006740045202997
  29    2.9226423550785e-14
  30    0.00068390746849791
  31    0.0023382531680315
  32    1.7822777064239e-14
  33    0.0088065003052479
  34    4.2973407222185e-05
  35    1.5045638267231e-15
  36    0.0011185695716604
  37    -0.00017458422054982
  38    -0.00019309632793054
  39    2.9996271588118e-15
  40    6.1577447492037e-05
  41    1.556693578042e-15
  42    0.0021486646055775
  43    0.0016072268443258
  44    9.9750623162014e-17
  45    0.00024971956954386
  46    1.1749914783713e-15
  47    0.00013973124209288
  48    0.0019716254241237
  49    -0.00011341558839853
  50    0.00011337792031183
  51    7.7776942257704e-16
  52    -0.00022525341895995
  53    -0.0007754742798843
  54    -2.6147257182339e-16
  55    0.00023726249387951
 Sym= A
 Ene=               8
 Spin= Alpha
 Occup=    0.00000
   1    -0.0092516436382321
   2    -0.022515584230197
   3      0.14805615591635
   4     0.012462594989792
   5    -0.0080957031616249
   6    2.1554340038718e-12
   7     0.072032619669227
   8    -0.061958475527023
   9    2.1977303867803e-12
  10    -0.028781035023227
  11     -0.07631016408062
  12    5.8988980483559e-12
  13     -0.27202836923984
  14    -0.0073477692018362
  15      0.01298788422785
  16    -6.389087373719e-13
  17    0.0035654388841399
  18    -1.3487180298354e-13
  19     0.012832481613033
  20     0.027287202878186
  21    -6.6700952502422e-13
  22    0.0086046801354494
  23    2.7603246481621e-13
  24    -0.0073640940602029
  25     0.027536628175429
  26      0.21025351328338
  27      0.47736104270229
  28     -0.20167107800784
  29    5.8820513600746e-12
  30     0.071642135402757
  31     -0.18112299906685
  32    9.2625787642996e-12
  33     -0.14048855627588
  34       1.3223323530264
  35    -4.6480608854794e-11
  36    -0.025990377625399
  37    0.0054250482472605
  38    -0.025109360188813
  39    1.0063968016283e-12
  40    -0.015568875412324
  41    5.259944068613e-13
  42    -0.067525454248294
  43     -0.06343578475337
  44    2.603768635423e-12
  45     0.050220970036154
  46    -1.1672416483661e-12
  47     0.033005181781565
  48     -0.62004393589065
  49     -0.65473852195304
  50     0.021077441335193
  51    -2.7340656761086e-13
  52    -0.0070691588979345
  53      0.13641165389201
  54    2.3454722156933e-12
  55     -0.17436455373459
 Sym= A
 Ene=               9
 Spin= Alpha
 Occup=    0.00000
   1    -2.700730459274e-13
   2    -2.7399315810347e-12
   3    -7.7365066054482e-12
   4    1.0534546141166e-11
   5    3.2954884409283e-12
   6     -0.43972735474196
   7    1.0306791216208e-11
   8    -3.7420411808767e-13
   9     -0.42159019643428
  10    4.0329621196634e-12
  11    8.0651570749053e-12
  12     -0.22927837987532
  13    -9.9522065307279e-12
  14    -2.1111429044535e-13
  15    7.6230768320595e-13
  16    -0.0061406735854143
  17    -1.1963529365019e-13
  18    -0.0010243860631776
  19    5.4055128002743e-13
  20    1.4810447208239e-12
  21    0.0033035435510696
  22    -1.9851162269969e-13
  23    0.00025901683334024
  24    6.3061692879336e-13
  25    2.7132306005858e-12
  26    -1.7551259645779e-13
  27    -1.070229499485e-11
  28    -2.856451591109e-12
  29      0.40278480792023
  30    1.3028290335567e-11
  31    -9.223100242765e-13
  32      0.46641232504448
  33    7.3960860310501e-12
  34    -3.9483930474553e-12
  35       0.3388123069309
  36    -6.1316411567229e-12
  37    -8.4918973055161e-14
  38    -1.565592059968e-12
  39    -0.022921615629688
  40    7.3353672117569e-14
  41     0.012503518356883
  42    1.0529023163323e-12
  43    -7.4261670026044e-13
  44    -0.0044652000777266
  45    1.4691451067322e-12
  46     0.029373086254451
  47    4.5265880518594e-12
  48    5.489675643672e-12
  49    -1.5052057169459e-13
  50    6.8462485950549e-13
  51     0.021801754048354
  52    5.9467581665848e-14
  53    1.0359994110982e-12
  54     0.090980049147369
  55    5.4689788858125e-13
 Sym= A
 Ene=              10
 Spin= Alpha
 Occup=    0.00000
   1    -0.011912847992406
   2     -0.22647817847571
   3     -0.75573974070507
   4     -0.70896408361946
   5      0.19295049049305
   6    -2.2711706944977e-12
   7      0.55314970204921
   8      0.22623254180141
   9    6.5369547266093e-12
  10      0.48438265377886
  11     -0.10022385540713
  12    2.5152758909509e-11
  13      0.33985012862737
  14     0.011240540306576
  15    0.0067222140613127
  16    1.1423767687653e-12
  17    -0.0043031386548695
  18    4.2125899465422e-13
  19      0.01570989939994
  20    0.0023254949575531
  21    2.0896038700398e-12
  22    0.00077210991365408
  23    -5.1021701136207e-13
  24     0.033182434402355
  25      0.22432957431391
  26      0.48915236751583
  27      0.36781187769025
  28     0.069094716185933
  29    1.0848751879586e-11
  30      0.75651391085466
  31       0.1256762108424
  32    -1.0942778655935e-11
  33      0.62610380457118
  34    0.0011512892975581
  35    -2.881075169195e-11
  36      0.28830929666714
  37    -0.032181107503219
  38    -0.023216470847079
  39    1.2475644734918e-12
  40     0.018337320963777
  41    -9.0199105283256e-13
  42    0.0080212117820501
  43     0.003351018100985
  44    1.9582027897764e-12
  45    -0.0051688296512027
  46    -3.8807002133717e-13
  47     0.088483808949756
  48      0.50720004161677
  49      0.11968520445428
  50      0.01737501634835
  51    -7.3592355915964e-13
  52     0.010234473618833
  53     -0.21022839185003
  54    -6.2284755228943e-12
  55     0.058841014441772
 Sym= A
 Ene=              11
 Spin= Alpha
 Occup=    0.00000
   1    -0.010277979284006
   2     0.011439471206616
   3      0.16141687754469
   4       1.2398252602165
   5     0.019733058876883
   6    -1.3043260253818e-13
   7      0.14791417099583
   8     -0.22110332772533
   9    2.0068083129421e-11
  10      -0.1511430554283
  11      0.81697777417994
  12    -9.0521404028572e-12
  13     -0.80178288393054
  14    -0.0097971750940765
  15     0.040378488306235
  16    -1.3163753033973e-12
  17     0.015219971592997
  18    1.0042986035075e-12
  19     0.032016590687006
  20     0.091657901347578
  21    -1.8770439406394e-12
  22     0.031632464896533
  23    7.9867418359517e-13
  24     0.019503336032253
  25    -0.035023654182983
  26     -0.64224763247848
  27     -0.97398454031981
  28     -0.12736138220939
  29    2.8565608435475e-11
  30      0.19225916076468
  31    -0.017338767468402
  32    -7.9155168909428e-12
  33    -0.081585862912834
  34      -1.0234995954673
  35    -3.4431940070016e-11
  36     -0.71100425416871
  37     0.026144901514647
  38    -0.078115449003609
  39    4.8485126207118e-12
  40     0.011387137955635
  41    4.9905238384176e-13
  42     0.077991356820869
  43    -0.036460951964982
  44    -6.349692497957e-12
  45     0.096351057569901
  46    -6.8137205039593e-12
  47        0.179357749568
  48     0.037649945976573
  49      0.26474392593991
  50      0.02529839568542
  51    -1.6998177122949e-12
  52    -0.0040735896988473
  53      0.14874684661477
  54    -2.005512840987e-11
  55     0.086837494798151
 Sym= A
 Ene=              12
 Spin= Alpha
 Occup=    0.00000
   1    -0.038056919274569
   2    -0.064926926606189
   3      0.24347939911183
   4      0.19051353911112
   5     0.017962373596187
   6    1.1307002513836e-11
   7     -0.26986647312907
   8      0.12867721576144
   9    -7.4688014254287e-12
  10    -0.022050859189362
  11     -0.33628561434578
  12    6.5509046421412e-12
  13      0.39990977720698
  14    0.0053890614125264
  15    -0.023717508881197
  16    8.9668502109658e-13
  17     0.020036454217786
  18    -1.2161106890018e-12
  19    -0.0087557663294669
  20    -0.027769509536274
  21    3.9906962657567e-12
  22    -0.017956951043664
  23    -1.538255761053e-12
  24      -0.2830128002554
  25     -0.80926026530105
  26     -0.11004463608039
  27     -0.69090509281423
  28     -0.39359510884257
  29    1.724647852518e-12
  30      0.25591789458276
  31    -0.060142981861231
  32    -1.9048869911638e-11
  33      0.02000100664279
  34      0.30110044199965
  35    -2.4818792181006e-12
  36     -0.25886244769049
  37    -0.057485654555626
  38    -0.027978756991274
  39    -4.4211283317683e-12
  40     0.086505281891165
  41    -2.1760497359695e-12
  42     -0.12878032058673
  43     -0.12849499451765
  44    -2.631449616828e-12
  45     -0.10855813488839
  46    6.2651280314463e-12
  47      0.34364264496764
  48      0.89736978621087
  49      0.01400780052651
  50     0.013825607826317
  51    5.0250850542716e-13
  52    -0.022379581272451
  53     -0.93378417529645
  54    2.7010078275775e-11
  55     0.059438858988764
 Sym= A
 Ene=              13
 Spin= Alpha
 Occup=    0.00000
   1     -0.28495934258168
   2     -0.67949086794892
   3      0.56165031270254
   4      0.63154872005257
   5     0.051802220891275
   6    1.7557003034533e-11
   7      0.08842559712878
   8    -0.065882367072494
   9    -1.059722883367e-11
  10      0.33007166414505
  11      0.21865381302533
  12    -2.0996907644339e-11
  13    0.0064178123208452
  14     -0.11981313338179
  15    -0.079432491148776
  16    4.6994546767777e-12
  17    0.00093562684443738
  18    2.3449116250321e-12
  19     -0.20752664269413
  20     0.043013576597792
  21    7.203168477299e-12
  22     -0.23008218777799
  23    1.6578535804497e-11
  24      0.12744420340553
  25      0.41613354376429
  26      0.59421891737353
  27     -0.53340521648382
  28      0.16725316730238
  29    -1.6260281249852e-12
  30      0.16654539929199
  31       0.3809498229339
  32    -1.3139549327549e-11
  33    -0.0047547004317378
  34     -0.07567684806872
  35    3.6129017471838e-11
  36      -0.7720919650123
  37      0.19441630782759
  38    -0.084756135041487
  39    7.5354430833423e-13
  40      0.13937363887671
  41    -6.0953285875227e-12
  42      0.13053445731389
  43      0.13957023847991
  44    -6.7467805132445e-13
  45      0.20292845022294
  46    -6.2025809733455e-12
  47    -0.084527917319382
  48     -0.83329738482484
  49     -0.28515323141725
  50     0.049484696035046
  51    -8.9597938831124e-13
  52    -0.048696227309881
  53     -0.13727896581782
  54    1.911861744219e-11
  55     -0.31260262921943
 Sym= A
 Ene=              14
 Spin= Alpha
 Occup=    0.00000
   1      0.42062044788827
   2      0.85655297201433
   3      -2.3749352657084
   4      -1.6601839527771
   5    -0.055908374646498
   6    3.3761121653991e-12
   7     -0.22277597403259
   8      0.68890838327257
   9    7.030491011645e-12
  10       1.5876314058338
  11     0.022630966757107
  12    4.1843114125942e-12
  13      0.42185983938178
  14    -0.088672908081435
  15    -0.028563646188291
  16    -3.4786251836375e-13
  17     0.035203340834839
  18    -3.5039350690933e-12
  19     -0.43183419995344
  20     -0.29949578780878
  21    -1.0940955278764e-12
  22     0.062592389660182
  23    -8.9522248390289e-12
  24      0.24883881090433
  25      0.53412332813374
  26       1.0506555240392
  27     -0.10662649872246
  28       1.0331538778148
  29    2.5545216756949e-11
  30     0.052548068370102
  31     -0.81643012947621
  32    -2.9996334041328e-11
  33       1.6027134259045
  34      0.15918436608254
  35    -2.2632140812744e-11
  36      0.18177664579976
  37     -0.31359122572019
  38     -0.19136608184392
  39    -1.4196732336304e-11
  40      0.29777689530283
  41    4.1215182766684e-12
  42      0.41624959116928
  43    0.0025628500528893
  44    -2.459719335121e-12
  45     -0.34174622631224
  46    7.1239993196841e-12
  47     -0.48341274130406
  48       2.1868984559793
  49      0.27622497972241
  50      0.54508086100755
  51    -1.0776246090774e-13
  52     -0.45042996282871
  53     -0.92429839651554
  54    1.5817357316878e-11
  55      0.74349363306224
 Sym= A
 Ene=              15
 Spin= Alpha
 Occup=    0.00000
   1     -0.55566452470082
   2       -1.204847441543
   3       2.8265004098223
   4       2.2976695032403
   5      0.01226654169371
   6    8.737640318957e-11
   7      0.15274182423074
   8     -0.33832081753243
   9    -1.3731755371305e-10
  10      -1.6509522696004
  11       -0.101688086376
  12    -2.3934697796992e-11
  13      -0.4012444998662
  14      0.45497020724993
  15      0.38454831364329
  16    -3.81575237092e-11
  17       0.4555559966762
  18    -3.2087338614254e-11
  19      0.21745394116119
  20    -0.065802511148656
  21    4.8887329588417e-11
  22      0.14166454877613
  23    9.1125724489589e-12
  24    -0.025325400531571
  25     -0.15646730682776
  26      -2.6036664317338
  27      -1.9671042431217
  28       0.1858923746871
  29    -2.4492520430654e-11
  30     -0.39226625667549
  31      -1.0017820184194
  32    6.1433765064331e-11
  33      -1.2604433047686
  34     -0.11164492636377
  35    3.073352174073e-11
  36     -0.55819045194007
  37     0.001059713984029
  38      0.23299037890895
  39    -2.1784672344722e-11
  40     -0.14977819665938
  41    1.8795800288314e-11
  42     -0.19076858919781
  43     -0.23241887130063
  44    4.5990794532734e-11
  45     -0.20924161708556
  46    3.7935934129551e-12
  47     0.081445613127198
  48      0.54355937166758
  49      0.03433423981544
  50    -0.004097966595803
  51    -3.8400454419536e-12
  52    -0.051227427692509
  53      -0.1349402016915
  54    3.4379507519364e-11
  55      0.18071895508693
 Sym= A
 Ene=              16
 Spin= Alpha
 Occup=    0.00000
   1    -0.011936550501938
   2    -0.028888382145693
   3    -0.013621580330661
   4     0.028360681471385
   5     0.010523868230404
   6      -0.1703047304604
   7    0.0012739549008908
   8     0.022818664707332
   9     -0.31375425282848
  10     0.058606879015406
  11    -0.090049483555241
  12       2.0889372931634
  13      -0.2017170254016
  14    -0.010168420435551
  15    -0.0085731007102625
  16     0.017520974126142
  17    -0.0010184320693835
  18    0.0046206449153418
  19    -0.010978834645734
  20    0.0026518088465636
  21    -0.077209543207122
  22    -0.010721626303299
  23    -0.017755663940046
  24    0.00063685181421973
  25    -0.00038856102261054
  26     0.059542250986329
  27    -0.0038514466941589
  28    0.0058324634093936
  29     0.061568109575174
  30       0.0140121709609
  31      0.05082813122969
  32    -0.020883093139749
  33     0.011785410158828
  34     0.037885490621344
  35      -1.5944714023454
  36     0.096921414669243
  37    0.0041034967964115
  38    -0.0064789725631728
  39    -0.00010881404916826
  40     0.012599117052419
  41    0.0044478759714021
  42      0.01540689682839
  43     0.020487063551372
  44     -0.11556521540708
  45     0.006887771121793
  46    -0.051928852511285
  47    -0.0017379524586913
  48     -0.10239607473823
  49    -0.047311905667956
  50    0.0086456559629345
  51    0.0010217906805183
  52    -0.007305815278279
  53     0.020269657127805
  54      0.10407979407505
  55    -0.069161784314852
 Sym= A
 Ene=              17
 Spin= Alpha