[Molden Format]
made by pyscf v[2.13.1]
[Atoms] (AU)
O   1   8     0.21099695469856     0.00000000000000     2.15462460678861
N   2   7    -0.44776862100326     0.00000000000000    -0.03589262653049
H   3   1     1.18163474748449     0.00000000000000    -1.17386889907833
[GTO]
1 0
 s    8 1.00
                 11720  0.00070964594651845
                  1759  0.0054672722921914
                 400.8   0.027823118610189
                 113.7    0.10474773971146
                 37.03    0.28292084635691
                 13.27    0.44849523869833
                 5.025    0.27081688521277
                 1.013    0.01545029160744
 s    8 1.00
                 11720  -0.00031444341168873
                  1759  -0.0024821376810179
                 400.8  -0.012316355381583
                 113.7  -0.050538917343672
                 37.03   -0.13938490331632
                 13.27   -0.32507749481778
                 5.025   -0.22984830758785
                 1.013     1.0953793467883
 s    1 1.00
                0.3023                   1
 s    1 1.00
               0.07896                   1
 p    3 1.00
                  17.7   0.062679166281506
                 3.854    0.33353656587936
                 1.046    0.74123964163973
 p    1 1.00
                0.2753                   1
 p    1 1.00
               0.06856                   1
 d    1 1.00
                 1.185                   1
 d    1 1.00
                 0.332                   1

2 0
 s    8 1.00
                  9046  0.00069961741342552
                  1357  0.0053860546299287
                 309.3   0.027391021189057
                 87.73    0.10315059198201
                 28.56    0.27857066331743
                 10.21    0.44829484945412
                 3.838    0.27808592839527
                0.7466   0.015431561233271
 s    8 1.00
                  9046  -0.00030499009595337
                  1357  -0.0024080263785077
                 309.3   -0.01194444872518
                 87.73  -0.048925992909017
                 28.56   -0.13447272472496
                 10.21   -0.31511257770011
                 3.838   -0.24285783254964
                0.7466     1.0943822068542
 s    1 1.00
                0.2248                   1
 s    1 1.00
               0.06124                   1
 p    3 1.00
                 13.55   0.058905676772132
                 2.917    0.32046110671427
                0.7973    0.75304206179207
 p    1 1.00
                0.2185                   1
 p    1 1.00
               0.05611                   1
 d    1 1.00
                 0.817                   1
 d    1 1.00
                  0.23                   1

3 0
 s    3 1.00
                 13.01   0.033498726389998
                 1.962    0.23480080117413
                0.4446     0.8136829578829
 s    1 1.00
                 0.122                   1
 s    1 1.00
               0.02974                   1
 p    1 1.00
                 0.727                   1
 p    1 1.00
                 0.141                   1

[5d]
[7f]
[9g]

[MO]
 Sym= A
 Ene=               0
 Spin= Alpha
 Occup=    1.00000
   1    -0.00084765260282281
   2    -0.012024842953075
   3    -0.030477218757644
   4    -0.026756722704593
   5      0.50119803879165
   6    3.1779948875553e-14
   7    -0.067711554000288
   8      0.39559316120879
   9    2.2728375086993e-14
  10    -0.049593523016169
  11     0.086521078089154
  12    2.9390130691236e-15
  13    -0.009325365681146
  14    -0.0032873998541663
  15    -0.0014877590680752
  16    -1.7784606605116e-15
  17    -0.00048477999513159
  18    -4.6336065217629e-16
  19    -0.0003834965699759
  20    -0.012422092632141
  21    -2.8343556094574e-15
  22    -0.0040595723045625
  23    -7.6746077170431e-16
  24    0.0022234752231509
  25      0.12730632063444
  26      0.29152431280211
  27      0.13084204506057
  28     -0.39204438115771
  29    2.5243328115532e-14
  30    -0.057538824889161
  31     -0.28047663745698
  32    1.4983772760655e-14
  33    -0.0086160691291948
  34    -0.050932712382116
  35    7.1338382006802e-17
  36    -0.0036038018790951
  37    -0.011489468582368
  38     0.022738156773193
  39    2.5419690261254e-15
  40     -0.01005169528419
  41    1.4348356810347e-15
  42     0.013725497103078
  43    0.00099381163956925
  44    -3.34238300683e-16
  45    -0.0079656970871943
  46    6.8786660270006e-16
  47     -0.25663450786893
  48     -0.13747102145874
  49    -0.023909309244673
  50    0.0098628180590199
  51    7.1821359577181e-16
  52    -0.014333921221388
  53    -0.0074550701683751
  54    -8.152356114492e-17
  55     0.019535538865835
 Sym= A
 Ene=               1
 Spin= Alpha
 Occup=    1.00000
   1    1.9266143314526e-16
   2    -3.5011243648773e-14
   3    -7.7603700939982e-14
   4    -6.032097132769e-14
   5    -2.3307308752183e-13
   6      0.46121976843488
   7    -7.9243569991815e-14
   8    -1.4707694245627e-13
   9      0.32974340462069
  10    -2.6674401798438e-14
  11    -4.2404448934379e-15
  12     0.030802567338183
  13    1.0087683648807e-14
  14    2.3659730565251e-15
  15    1.068784659252e-14
  16    -0.026824120160976
  17    2.2542201378296e-15
  18    -0.0071124454579522
  19    -2.094648952176e-15
  20    1.1963217975067e-14
  21    -0.038877470563028
  22    1.1406395634312e-15
  23    -0.0090210235614491
  24    2.9360461350932e-15
  25    4.391472638927e-14
  26    4.3196195129885e-14
  27    3.7857284088793e-14
  28    -1.2597028416313e-13
  29      0.36554341648903
  30    1.3556060576409e-13
  31    -4.1919142907915e-14
  32      0.21781160050653
  33    5.1604294985853e-14
  34    2.0706846352577e-15
  35     0.017054177082774
  36    1.3877608830083e-14
  37    1.5779200943734e-14
  38    9.9210765193768e-16
  39     0.037460083469865
  40    -8.3577132430929e-15
  41     0.019463655437898
  42    -2.354545695427e-15
  43    8.1193022979776e-15
  44    -0.0022756620392066
  45    3.9925047156416e-15
  46     0.013052508618961
  47    -1.0741401177286e-13
  48    -1.3293169755155e-14
  49    -2.7110440487825e-15
  50    8.5886810356874e-15
  51    0.0098714669262827
  52    -6.2930969085251e-15
  53    -3.470064929279e-15
  54    -0.0027623694064091
  55    -3.8687384978869e-15
 Sym= A
 Ene=               2
 Spin= Alpha
 Occup=    1.00000
   1     0.005343744078509
   2     0.030525660586046
   3      0.10226579596814
   4     0.054267878327143
   5     0.030067437087642
   6    1.1175249557973e-13
   7      0.49724893904381
   8     0.010228401382132
   9    8.0563510187845e-14
  10      0.29310244536179
  11    -0.013516855265234
  12    7.3563832543152e-15
  13    0.0062751895006026
  14    -0.023341440745259
  15    -0.010883225115841
  16    -6.4798688686373e-15
  17    -0.00021647679621975
  18    -1.7365222410394e-15
  19    -0.020656506711988
  20    -0.010694263934805
  21    -9.7557719492395e-15
  22    -0.00075771154292169
  23    -2.2582268072167e-15
  24    -0.00042592311119469
  25    -0.039315839224857
  26     0.095350736988946
  27    -0.007553203041375
  28    -0.082949439363267
  29    8.8151535319981e-14
  30     -0.42942500707805
  31    -0.042394798222059
  32    5.2095976298317e-14
  33     -0.13674308084275
  34    -0.0013576996603169
  35    3.8232716077482e-15
  36    -0.0067269266310227
  37    -0.027815818472958
  38    -0.037272700123868
  39    9.0460601634313e-15
  40    -1.7160940002849e-05
  41    4.7406423020298e-15
  42     0.010402664552921
  43    -0.0030321415055661
  44    -1.0187695880153e-15
  45    -0.0060990950984676
  46    2.8953559265013e-15
  47      0.16135464725854
  48     0.069603169520654
  49    0.0043930647113568
  50    -0.013953362157573
  51    2.4138967758467e-15
  52    0.0013458251575989
  53    -0.0070231408002433
  54    -5.0630959875864e-16
  55      0.01191175956514
 Sym= A
 Ene=               3
 Spin= Alpha
 Occup=    1.00000
   1    -0.0021041706217357
   2    -0.024422122040337
   3    -0.044729205626488
   4    -0.0010357268356434
   5      0.36642943755877
   6    1.8613011079851e-13
   7     -0.13952409392063
   8      0.23293467755889
   9    1.3189200158148e-13
  10    -0.085500557334801
  11    0.0063506960232283
  12    1.1739149155216e-14
  13    -0.0038208268864633
  14     0.012119276955773
  15    -0.014483853298928
  16    -1.0909339687659e-14
  17    -0.0048094980277248
  18    -2.8896392258375e-15
  19     0.014311313082216
  20    -0.018795072360494
  21    -1.4939232034043e-14
  22    -0.0019062179195786
  23    -3.4820881193164e-15
  24    -0.0097034833819398
  25     0.081214819176198
  26     0.014961435305819
  27    0.0021277956374555
  28      0.37947316434693
  29    1.4737575026666e-13
  30     -0.11699232847583
  31      0.15177883879185
  32    8.9178767942181e-14
  33    -0.020085424893681
  34     0.016403722194407
  35    7.1236993789631e-15
  36    -0.0033017544958789
  37     -0.01793532334301
  38    0.0083119123432273
  39    1.5108850951505e-14
  40     0.021548890608716
  41    7.8460570412659e-15
  42    0.0098830454584994
  43    -0.0016649959489298
  44    -1.2981802482421e-16
  45    -0.0070704505213659
  46    5.6612971936639e-15
  47      0.29174112078187
  48      0.02133776758402
  49    -0.0029589317352699
  50    -0.025918017861321
  51    3.9392381828817e-15
  52     0.021776555554145
  53     0.010223845053527
  54    -1.2562963860343e-15
  55    -0.0019585865391114
 Sym= A
 Ene=               4
 Spin= Alpha
 Occup=    1.00000
   1    0.0023017748662856
   2      0.17762458409854
   3      0.28991202432528
   4     0.058983370603272
   5      0.23330012319534
   6    8.6537443232951e-14
   7       0.1030067967726
   8      0.13430957805742
   9    6.3179556371226e-14
  10     0.015649291572725
  11     0.005874143058877
  12    5.1302579784071e-15
  13    -0.0098722163033693
  14    -0.0081061148219943
  15     -0.01166567770106
  16    -4.9826908164119e-15
  17    -0.0010848456692259
  18    -1.264250674231e-15
  19    -0.0027894313555931
  20    -0.0084029197083178
  21    -7.7641995003641e-15
  22    -0.00049828656854593
  23    -2.0008592988384e-15
  24    0.0016030513816796
  25     -0.41695348830821
  26     -0.44078242485132
  27    -0.047242286944845
  28      0.10454839140782
  29    6.8730339013396e-14
  30     0.098640217481659
  31     0.074611723339824
  32    4.0015981525031e-14
  33     0.019994369696747
  34    0.0023060434075564
  35    3.8461817686699e-15
  36    -0.0059393605250104
  37    -0.0052202171154061
  38     0.016295483966882
  39    7.0220864873444e-15
  40    0.0014700671093628
  41    3.6342046443548e-15
  42    -0.011296273685764
  43    -0.019301360706096
  44    -1.189514389869e-15
  45    0.0096116367281592
  46    2.2408857943154e-15
  47     -0.16349974872734
  48    -0.005603089721189
  49    0.00020586584866565
  50     0.023454751129083
  51    1.8967192869279e-15
  52    -0.011085565537963
  53    -0.0052629436653559
  54    -6.153945892535e-16
  55    0.0057864602367243
 Sym= A
 Ene=               5
 Spin= Alpha
 Occup=    1.00000
   1    -0.011052979683393
   2      0.44699504662216
   3      0.54207036331291
   4     0.060849500668378
   5    -0.035555890010032
   6    6.1883725311074e-15
   7     0.030919294380778
   8    -0.025608023355853
   9    4.329839539805e-15
  10    -0.0034833488633667
  11    -0.0012228168841753
  12    5.7895941347392e-16
  13    0.0032999614451693
  14    0.0073307333187716
  15    0.0053820965689231
  16    -3.1179266749149e-16
  17    0.0010691349370829
  18    -9.4742977784006e-17
  19    0.0088476002666878
  20    0.0044835200042815
  21    -7.1603153681347e-16
  22    0.0018951217849758
  23    -7.684443671692e-17
  24    -0.0082845358313423
  25      0.17545829122032
  26     0.029928411651227
  27    -0.019953018065654
  28    0.0083421814315606
  29    4.7842649729174e-15
  30     0.085804582662564
  31     -0.02970184010284
  32    2.7853223468957e-15
  33    -0.051358929382198
  34    -0.0010838481854795
  35    1.3206393382943e-16
  36    -0.010842242190797
  37     0.019958745517212
  38     0.011238737248204
  39    5.2713166705212e-16
  40    -0.00090134068653819
  41    1.9612672167627e-16
  42    -0.015170523598503
  43    -0.0054367103153468
  44    -7.7127404807911e-17
  45    -0.0066500532802451
  46    2.1275543759977e-16
  47     0.038545697738148
  48    -0.014804067251138
  49    0.00066433876959601
  50    -0.0083903035939208
  51    1.8319620558565e-16
  52    0.0064095003689166
  53    0.0072817581672124
  54    -2.0908786295869e-16
  55    -0.0054561299681875
 Sym= A
 Ene=               6
 Spin= Alpha
 Occup=    1.00000
   1     -0.14477933494389
   2    0.00061806981843578
   3    0.00016465500139148
   4    -0.0011018684138156
   5    0.00059360803599032
   6    4.6715824589976e-16
   7    -0.0018345371317667
   8    0.0008902820371732
   9    -2.3544865086763e-15
  10    0.00010134061493303
  11    2.7659153355138e-05
  12    -1.9201311871699e-15
  13    0.00030516441707724
  14    -0.00014044441725126
  15    -8.8941793270669e-05
  16    -7.8645294767017e-16
  17    -0.00010351247097063
  18    -2.5169966567554e-16
  19    -0.00069393485025583
  20    -0.00056464301999836
  21    2.8644612442839e-15
  22    -0.00016115127528128
  23    6.9143637622847e-16
  24      0.99115425036003
  25    0.0058161568556923
  26    -0.0046193290556625
  27    -0.0018531020013652
  28    0.0038782692160998
  29    4.0972061887367e-16
  30    0.0012459356278526
  31    -0.0020564398260735
  32    3.7595285741075e-15
  33    0.00040295445820682
  34    -0.00055416574629238
  35    1.5469594380311e-15
  36     0.000440567538511
  37    0.0006814274300094
  38    0.00018723733479582
  39    1.9193061121295e-16
  40    0.00065513981778958
  41    6.8042672811549e-17
  42    -0.00047940227862068
  43    -2.2203458150369e-05
  44    2.3794650929521e-15
  45    -0.00046846920865425
  46    1.1105277260317e-15
  47    0.0025486835287119
  48    0.0057015479925238
  49    0.0005981237215453
  50    0.00021371732172924
  51    -1.0933803946585e-16
  52    -9.7024594113212e-05
  53    -0.0017231876574967
  54    -3.8881535172796e-16
  55    0.0014388351990063
 Sym= A
 Ene=               7
 Spin= Alpha
 Occup=    1.00000
   1       0.9915385719688
   2    0.0042074435446726
   3    -0.015188328159796
   4    -0.0051069471542294
   5    -0.00032570248509679
   6    2.0648756652977e-17
   7    -0.0025474426986404
   8    0.0022322840807219
   9    -5.3955140600448e-16
  10     0.007713139850131
  11    0.00033752154094065
  12    -3.9818665914564e-16
  13    0.0008328146857021
  14    0.00030522142831243
  15    5.9891476546341e-05
  16    -1.0287806307939e-16
  17    0.00029610793969828
  18    -6.1237806253599e-17
  19    -0.0018771354800239
  20    -0.00094555940663763
  21    5.3714963263943e-16
  22    -0.00014419801424124
  23    1.1237434971283e-16
  24       0.1448188104848
  25    0.00084005934709421
  26     0.010490085764434
  27    0.0030684527544775
  28    0.0010451896673178
  29    -2.8576177389368e-19
  30    0.0012043533368057
  31    0.0021971627404751
  32    6.472702248788e-16
  33    0.0087158244121202
  34    9.3452247497248e-07
  35    2.4678671470396e-16
  36    0.0011058197507457
  37    -7.286010413886e-05
  38    -0.00012150049680645
  39     1.48995381737e-17
  40    0.00010055992314215
  41    3.4345193852839e-18
  42     0.002050329778686
  43    0.0015566488977156
  44    4.437208439023e-16
  45    0.00021574125717056
  46    2.0637594221561e-16
  47    7.6523223924178e-05
  48    0.0023111194234267
  49    -6.9040888691733e-05
  50    0.00014996371489077
  51    -1.9507850347275e-17
  52    -0.00023815081271363
  53    -0.00088544339986198
  54    -6.7800025468934e-17
  55    0.00033176026103438
 Sym= A
 Ene=               8
 Spin= Alpha
 Occup=    0.00000
   1    -0.010598142527872
   2    -0.029886480291162
   3      0.14991514438894
   4     0.043495956529648
   5     0.039853978950996
   6    -4.2088235233463e-14
   7     0.078766571478484
   8    -0.043785242070856
   9    -3.8541196251692e-14
  10     -0.02878991496865
  11     -0.22335617871906
  12    -4.7608523371688e-14
  13     -0.30044606787773
  14    -0.0092117548627575
  15     0.015970017141266
  16    8.4767763240056e-15
  17    0.0044180655262107
  18    1.8106930500736e-15
  19     0.010470872466106
  20     0.040477094427301
  21    8.188835035972e-15
  22     0.012273798673691
  23    -4.1445820101836e-15
  24    -0.011838750766642
  25     0.010871866029634
  26      0.20983113355248
  27      0.66321456271638
  28     -0.19214285701354
  29    -8.2666709059802e-14
  30      0.10446822639126
  31     -0.17766329163161
  32    -1.2265336072269e-13
  33     -0.13750786738527
  34       1.4519668449107
  35    6.2195696740388e-13
  36    -0.072686125339611
  37    0.0063003146419363
  38    -0.033615842163192
  39    -1.3498672297168e-14
  40     -0.01634449889236
  41    -6.9400090651273e-15
  42     -0.07455880606673
  43    -0.088729220315033
  44    -3.4402369084435e-14
  45     0.051706191254184
  46    1.6629349301788e-14
  47     0.049146090733277
  48       -0.727425188326
  49     -0.78901006839914
  50     0.022210047575631
  51    4.2366429344501e-15
  52    -0.0092737431562643
  53      0.16652841671278
  54    -2.3737845759074e-14
  55     -0.22951757163803
 Sym= A
 Ene=               9
 Spin= Alpha
 Occup=    0.00000
   1    2.3698317752846e-15
   2    1.6115356341194e-14
   3    2.4507854304389e-14
   4    -6.0030751691738e-14
   5    -3.6188670508564e-14
   6     -0.43187995491029
   7    -5.3612386028496e-14
   8    9.008197696897e-15
   9     -0.41671219696099
  10    -1.71152518618e-14
  11    2.1250432753153e-14
  12     -0.27132254627438
  13    5.6228371330917e-14
  14    2.0543320756348e-15
  15    -4.6389697242776e-15
  16    -0.0058969652990928
  17    6.4440982549648e-16
  18    -0.0011514511094665
  19    -3.6014347177708e-15
  20    -1.1781117218837e-14
  21    0.0041951257457154
  22    3.5310554893436e-15
  23    -0.00064688340487298
  24    -4.1330002810446e-15
  25    -1.5148649942324e-14
  26    1.4807111394427e-14
  27    1.0278457298273e-13
  28    4.6074548423512e-14
  29      0.41799506690158
  30    -8.1273804773395e-14
  31    2.7105664867537e-14
  32      0.46463674089212
  33    -3.865476992414e-14
  34    -8.8186224438749e-14
  35      0.35902988080132
  36    3.5929840835295e-14
  37    -2.2773022886204e-16
  38    8.4090676336864e-15
  39    -0.020993800779962
  40    9.7527350183991e-17
  41     0.010774877150107
  42    8.0761083442978e-16
  43    8.7771311428167e-15
  44    -0.0058259902453581
  45    -8.4473145903145e-15
  46     0.023788384560583
  47    -3.8266149471747e-14
  48    -6.0003429259072e-14
  49    1.5696876566319e-16
  50    -5.5326253357125e-15
  51     0.022311028627651
  52    3.4031390404711e-16
  53    -1.0112638078771e-14
  54      0.07860708751154
  55     6.68480891791e-15
 Sym= A
 Ene=              10
 Spin= Alpha
 Occup=    0.00000
   1    -0.013275312352569
   2     -0.22337100312546
   3     -0.71487579047436
   4     -0.81372268704008
   5      0.16112105724168
   6    2.0670647278753e-14
   7      0.59729601072854
   8      0.19253219022172
   9    -3.5147160161684e-14
  10      0.50334506770494
  11     0.066065940573454
  12    -1.9426275828445e-13
  13        0.273470394921
  14     0.016247071925837
  15    0.0060772866120626
  16    -9.9459484359435e-15
  17    -0.0039301877921321
  18    -1.8819640098746e-15
  19     0.034165951603908
  20    0.0098054569161203
  21    -1.0352719001979e-14
  22    -0.0063999982135325
  23    2.6851113063778e-15
  24     0.035029334555725
  25      0.24597132988967
  26      0.54607262599462
  27      0.48777619344485
  28      0.13089208859315
  29    -4.9510958141966e-14
  30       0.7233212838085
  31      0.14165609862146
  32    8.383562681928e-14
  33      0.62961156208762
  34     -0.14051648435325
  35    1.4940905405476e-13
  36      0.26875833689818
  37    -0.038841394578847
  38    -0.0090444714827038
  39    -8.0296486063896e-15
  40     0.014921000945562
  41    5.3356180995677e-15
  42    -0.014336059867693
  43     0.018200235829834
  44    -3.0503454043323e-15
  45    0.00022656620302098
  46    -1.7139161496634e-15
  47     0.047852684609314
  48       0.3851256262779
  49      0.11732619266585
  50     0.016060100198638
  51    5.1552534974253e-15
  52     0.015801268056291
  53     -0.14414543797363
  54    2.7562286820388e-14
  55     0.083893497778283
 Sym= A
 Ene=              11
 Spin= Alpha
 Occup=    0.00000
   1    0.0087218647731502
   2    -0.020404030317903
   3      -0.1228907358703
   4      -1.1163903548412
   5     -0.21627824045404
   6    2.0908766188068e-14
   7      0.06943075252529
   8      0.19487899225855
   9    1.3841453832873e-13
  10      0.10566029720879
  11    -0.044159104962563
  12    -7.2010307157702e-14
  13      0.37762787120929
  14    0.0095973493153612
  15      -0.0286770213942
  16    -1.1772089879791e-14
  17    -0.017880369194391
  18    7.312383030897e-15
  19    -0.0042863412784032
  20    -0.060250436014346
  21    -1.0023008754184e-14
  22     -0.02891799680807
  23    6.8078594271633e-15
  24     0.045727809944304
  25      0.25628774733531
  26      0.67519260040842
  27       1.6107751867854
  28      0.43274176279578
  29    9.6969683644996e-14
  30     -0.24124856006583
  31     0.012720618332173
  32    -1.3291622004141e-13
  33    -0.007818537443596
  34      0.76258549859807
  35    -2.8434708447381e-14
  36      0.59220562551479
  37    -0.015675534939231
  38     0.057833755793942
  39    2.0554274505481e-14
  40    -0.023780636511331
  41     -1.8120078491e-15
  42    -0.079202070721783
  43     0.049394666833201
  44    -6.5752243761661e-14
  45    -0.044170268689961
  46    -9.0508549209072e-15
  47     -0.36670924610663
  48     -0.92395225098641
  49      -0.5159450018913
  50    -0.043114994890175
  51    -1.0265793617574e-14
  52     0.012812459143687
  53    0.00088068724152228
  54    -6.4500119720112e-14
  55     -0.15120467557054
 Sym= A
 Ene=              12
 Spin= Alpha
 Occup=    0.00000
   1    -0.071307435939151
   2       -0.230988839911
   3     0.054197704756082
   4     -0.32671473613748
   5     -0.18566149026861
   6    -6.8762439849677e-14
   7     -0.26088885160998
   8      0.22959141098416
   9    1.3491629436491e-13
  10     0.022483643760014
  11     -0.10294762242844
  12    -1.1728910130463e-13
  13      0.55328353811973
  14    0.0058790521569349
  15      -0.0416014961685
  16    -1.6400884981933e-14
  17    0.0011768860206933
  18    1.4981474800982e-14
  19    -0.0069967015711248
  20    -0.079256705749543
  21    -4.4812899907693e-14
  22      -0.0286204002903
  23    2.7755176530443e-15
  24     -0.29575239464089
  25     -0.81704742994693
  26     0.099209208929253
  27      0.78155313329279
  28     -0.10353548112236
  29    6.3965008218925e-14
  30      0.18663343166454
  31     -0.20993784532769
  32    8.4880436984674e-14
  33     0.030408117527448
  34      0.58477230994905
  35    -3.9126761543176e-14
  36      0.24397910437403
  37    -0.072379224777656
  38     0.022861608408324
  39    3.7701910753114e-14
  40      0.03241510766318
  41    1.6499708039373e-14
  42     -0.20974143577527
  43    -0.072236895260366
  44    -3.1684293422584e-14
  45      -0.1076993985046
  46    -9.386073971151e-14
  47      0.14011734089668
  48      0.47920855174465
  49     -0.31804278337279
  50    0.0044725544492242
  51    -9.3270115407024e-15
  52    -0.0051886930725095
  53     -0.76867315427069
  54    -2.2058854337211e-13
  55     0.045097261227532
 Sym= A
 Ene=              13
 Spin= Alpha
 Occup=    0.00000
   1      0.35038300937635
   2      0.92034060694066
   3     -0.11902109219428
   4      -2.2910953708259
   5    -0.089371005263027
   6    7.6526843389338e-14
   7     0.053296595778479
   8     0.092435463026598
   9    -3.3684662042375e-15
  10     -0.29874942260119
  11       -0.106950074188
  12    -2.0862607106389e-13
  13      0.37025078586166
  14      0.13007106561021
  15     0.048209020933893
  16    3.341660875926e-14
  17     0.034911028712791
  18    5.6883403439585e-15
  19       0.3064133544907
  20     0.020475460372191
  21    2.4138014679629e-14
  22      0.15026248800063
  23    1.3766962928162e-13
  24     -0.19335834418564
  25     -0.49261154946118
  26     -0.19436784853849
  27       1.6087500985111
  28    -0.065457910739157
  29    6.440854998953e-14
  30     -0.15997951920023
  31      -0.3162684379474
  32    -8.1681252753368e-14
  33    -0.097429768222397
  34       0.2529071092437
  35    2.5297675032255e-13
  36      0.87617062415329
  37     -0.21266805732864
  38     0.049209656052677
  39    2.4719315064216e-14
  40     -0.12517366288615
  41    -4.1404913476168e-14
  42     -0.36382365044925
  43     -0.17368525863085
  44    -1.9720401736179e-14
  45     -0.24166737879641
  46    -5.7309332232668e-14
  47     0.044390966431892
  48       0.5469509696817
  49     0.027037482777897
  50    -0.032703472864687
  51    -2.7625492720945e-14
  52     0.046886617744216
  53    -0.067018019409773
  54    1.2680956865105e-14
  55      0.28717205473976
 Sym= A
 Ene=              14
 Spin= Alpha
 Occup=    0.00000
   1      0.41425213666324
   2      0.82610479303901
   3      -2.1852324584594
   4      -1.3436674531061
   5    -0.010035357706889
   6    -8.7653224057295e-14
   7     -0.36636939288234
   8      0.63627746322987
   9    -1.7170166063273e-13
  10       1.7382481046293
  11     -0.05351892052361
  12    2.9900572293798e-13
  13      0.41135067285388
  14      -0.1419442496204
  15    -0.061372150314202
  16    8.133201743346e-14
  17     0.012309529449482
  18    -6.4383534899548e-14
  19     -0.57743069403106
  20      -0.3472711857935
  21    1.326819366159e-14
  22    0.0058977797370404
  23    5.3184754958147e-14
  24      0.48670534132392
  25       1.0211890753804
  26      0.40164845789982
  27     -0.34845933468228
  28      0.92740715307082
  29    -9.7748447718144e-14
  30      0.17081277445151
  31     -0.79443781328919
  32    3.2265281237201e-13
  33       1.4428617455548
  34     0.036491430476005
  35    -3.4239363088769e-13
  36     0.021083053372105
  37     -0.27565377946004
  38     -0.20246794403368
  39    6.2847884813397e-14
  40      0.13402918484249
  41    1.3868556059318e-14
  42      0.34473594215254
  43    -0.0044868664761091
  44    1.6422862564402e-13
  45     -0.24088751380319
  46    -1.5228368711085e-13
  47     -0.40789640504662
  48       2.4357204206437
  49      0.30836170516138
  50      0.55044506830117
  51    -4.2307216964678e-14
  52     -0.42575407887554
  53     -0.88879583938161
  54    -7.7782799692766e-15
  55       0.7440813843235
 Sym= A
 Ene=              15
 Spin= Alpha
 Occup=    0.00000
   1       0.5524884380878
   2       1.1422880387322
   3      -3.4278890095179
   4      -1.7636631306814
   5    -0.029180966341971
   6    8.9277119695212e-13
   7     -0.13872982760727
   8      0.40577504621992
   9    -1.2367072952515e-12
  10       1.9288121082541
  11      0.18528408524419
  12    -1.7621563178519e-13
  13      0.39137440685949
  14     -0.38916776391094
  15     -0.18857503165936
  16    -4.363706732698e-13
  17     -0.65335467332421
  18    -3.3701016010095e-13
  19     -0.38549833076045
  20    -0.052158495948716
  21    3.1474788654727e-13
  22    -0.097846357010368
  23    2.8349668531286e-14
  24    -0.061453505718019
  25     -0.04848118122782
  26       3.2850517896452
  27       1.7030434639809
  28     -0.17234829234236
  29    -1.3934510871844e-13
  30      0.48843696716625
  31       1.1326269410221
  32    5.9086449982688e-13
  33       1.5901427879645
  34      0.16943817571604
  35    5.8483360096005e-14
  36      0.36374037351972
  37     0.065743210102913
  38     -0.15622109138632
  39    -2.3118147241836e-13
  40      0.20132087817681
  41    -1.4653636845027e-14
  42      0.30692057240951
  43      0.31788594790526
  44    2.3697762242131e-13
  45      0.24726613524607
  46    2.5930413188411e-13
  47    -0.012773354100759
  48     -0.72002694689231
  49     -0.18309559542911
  50    -0.049022698438084
  51    -8.2047713485723e-14
  52      0.05911499428797
  53    -0.054998238450737
  54    1.2636725678667e-13
  55     -0.29068427288703
 Sym= A
 Ene=              16
 Spin= Alpha
 Occup=    0.00000
   1    -0.00010461973213567
   2    0.0089291148979336
   3      0.10601305273587
   4     0.049850189786531
   5    0.0020895129702455
   6     -0.18091546950928
   7    0.0087295879132482
   8    -0.023423317094539
   9     -0.32361877252937
  10    -0.092737256149475
  11    0.0013244777989602
  12         2.08724719243
  13       0.1727162255583
  14     0.014921214725659
  15    0.0079483528572788
  16      0.01731024894575
  17     0.011897353678148
  18     0.004598067516901
  19     0.023316239533171
  20    0.0062186637140471
  21     -0.07718494697104
  22    0.0059957200130763
  23    -0.017630309945109
  24    -0.0074177067945981
  25    -0.012891509705729
  26    -0.083248028583676
  27    -0.078534118412455
  28    -0.015426520357905
  29     0.069405939517193
  30    -0.011795514932883
  31    -0.046148047764038
  32    -0.0095136054013437
  33    -0.055589041545787
  34     0.016309171193183
  35      -1.5907989924296
  36     -0.15604067260009
  37    -0.0022950586377147
  38    0.0070095304938984
  39    -0.00082731874726581
  40    -0.010762056990839
  41    0.0049489338631409
  42    -0.031441403138441
  43    -0.025648667621389
  44      -0.1154225703461
  45    -0.0093508786884828
  46    -0.050844321897805
  47    0.0076031804804549
  48     0.060593162240176
  49      0.02253280862731
  50    -0.0089941728740752
  51    0.0014327051705313
  52    0.0069015432196541
  53    -0.021195812255021
  54      0.10805989952477
  55     0.050931695293644
 Sym= A
 Ene=              17
 Spin= Alpha
 Occup=    0.00000