[Molden Format]
made by pyscf v[2.13.1]
[Atoms] (AU)
O   1   8     0.21099695469856     0.00000000000000     2.15462460678861
N   2   7    -0.44776862100326     0.00000000000000    -0.03589262653049
H   3   1     1.18163474748449     0.00000000000000    -1.17386889907833
[GTO]
1 0
 s    8 1.00
                 11720  0.00070964594651845
                  1759  0.0054672722921914
                 400.8   0.027823118610189
                 113.7    0.10474773971146
                 37.03    0.28292084635691
                 13.27    0.44849523869833
                 5.025    0.27081688521277
                 1.013    0.01545029160744
 s    8 1.00
                 11720  -0.00031444341168873
                  1759  -0.0024821376810179
                 400.8  -0.012316355381583
                 113.7  -0.050538917343672
                 37.03   -0.13938490331632
                 13.27   -0.32507749481778
                 5.025   -0.22984830758785
                 1.013     1.0953793467883
 s    1 1.00
                0.3023                   1
 s    1 1.00
               0.07896                   1
 p    3 1.00
                  17.7   0.062679166281506
                 3.854    0.33353656587936
                 1.046    0.74123964163973
 p    1 1.00
                0.2753                   1
 p    1 1.00
               0.06856                   1
 d    1 1.00
                 1.185                   1
 d    1 1.00
                 0.332                   1

2 0
 s    8 1.00
                  9046  0.00069961741342552
                  1357  0.0053860546299287
                 309.3   0.027391021189057
                 87.73    0.10315059198201
                 28.56    0.27857066331743
                 10.21    0.44829484945412
                 3.838    0.27808592839527
                0.7466   0.015431561233271
 s    8 1.00
                  9046  -0.00030499009595337
                  1357  -0.0024080263785077
                 309.3   -0.01194444872518
                 87.73  -0.048925992909017
                 28.56   -0.13447272472496
                 10.21   -0.31511257770011
                 3.838   -0.24285783254964
                0.7466     1.0943822068542
 s    1 1.00
                0.2248                   1
 s    1 1.00
               0.06124                   1
 p    3 1.00
                 13.55   0.058905676772132
                 2.917    0.32046110671427
                0.7973    0.75304206179207
 p    1 1.00
                0.2185                   1
 p    1 1.00
               0.05611                   1
 d    1 1.00
                 0.817                   1
 d    1 1.00
                  0.23                   1

3 0
 s    3 1.00
                 13.01   0.033498726389998
                 1.962    0.23480080117413
                0.4446     0.8136829578829
 s    1 1.00
                 0.122                   1
 s    1 1.00
               0.02974                   1
 p    1 1.00
                 0.727                   1
 p    1 1.00
                 0.141                   1

[5d]
[7f]
[9g]

[MO]
 Sym= A
 Ene=               0
 Spin= Alpha
 Occup=    1.00000
   1    -0.0010536123733382
   2    -0.0096263820976398
   3    -0.029829905264227
   4    -0.028720716715665
   5      0.50185296034088
   6    -4.0642225697868e-14
   7    -0.095676269647106
   8      0.39606978258424
   9    -2.9054899261249e-14
  10    -0.067084207558468
  11     0.087279627913732
  12    -1.9044850145019e-15
  13    -0.009907262172602
  14    -0.0020606399876444
  15    -0.0010031831575583
  16    2.4337586944035e-15
  17    -0.00047241593070422
  18    6.5594643025871e-16
  19    0.00078117557214088
  20    -0.011829349577644
  21    3.2771864124235e-15
  22    -0.0040052681171348
  23    6.4602837453518e-16
  24    0.0022878688137173
  25      0.11949423666818
  26      0.27464645931158
  27       0.1299176030875
  28     -0.38533381170001
  29    -3.2125341323493e-14
  30     -0.02766147628168
  31     -0.27618441322813
  32    -1.9200902519884e-14
  33    0.00052066723833879
  34    -0.050757303970377
  35    -2.5710021292567e-15
  36    -0.0032974712514612
  37    -0.0097542697532985
  38      0.02536164941144
  39    -3.3382477989439e-15
  40    -0.010095516028917
  41    -1.6235427648469e-15
  42     0.012733386405342
  43    0.00074273803067044
  44    3.1358725374279e-17
  45    -0.0073113042571087
  46    -1.3511540285289e-15
  47     -0.27131191438035
  48     -0.14175582003563
  49    -0.024112204969152
  50     0.011377461735875
  51    -8.3205223406131e-16
  52    -0.014743621077391
  53    -0.0071668371780126
  54    3.4018540592532e-16
  55     0.018887397334764
 Sym= A
 Ene=               1
 Spin= Alpha
 Occup=    1.00000
   1    -7.2455097819601e-15
   2    -4.110280928111e-13
   3    -7.4266492197664e-13
   4    -2.7996685762417e-13
   5    -1.3879834940149e-12
   6      0.46121976843488
   7    -1.128948742665e-12
   8    -8.4273171826657e-13
   9      0.32974340462069
  10    -5.8155826108319e-13
  11    9.3131298844875e-15
  12     0.030802567338183
  13    1.2491653346751e-14
  14    3.9106928651862e-14
  15    8.1853537701855e-14
  16    -0.026824120160976
  17    1.4625512590076e-14
  18    -0.0071124454579522
  19    1.6606468390033e-14
  20    8.9387960361971e-14
  21    -0.038877470563028
  22    7.2596834416583e-15
  23    -0.0090210235614492
  24    2.0852109400557e-14
  25    3.3910551406161e-13
  26    2.3203318597568e-13
  27    1.1014220259458e-13
  28    -9.0584472807699e-13
  29      0.36554341648903
  30    1.3450274808837e-12
  31    -3.5383825035247e-13
  32      0.21781160050653
  33    4.3852329343805e-13
  34    -3.4350928022681e-14
  35     0.017054177082775
  36    4.8723915097727e-14
  37    1.250828619858e-13
  38    5.3837198632295e-14
  39     0.037460083469865
  40    -5.9115032677128e-14
  41     0.019463655437898
  42    -3.3457356466865e-14
  43    4.2290933067758e-14
  44    -0.0022756620392066
  45    2.7684076903038e-14
  46     0.013052508618961
  47    -1.0220802667453e-12
  48    -2.2578465336297e-13
  49    -7.4288065260433e-15
  50    8.1115351394531e-14
  51    0.0098714669262827
  52    -5.0204363808506e-14
  53    -6.3674721290365e-15
  54    -0.0027623694064091
  55    -3.3468165366891e-14
 Sym= A
 Ene=               2
 Spin= Alpha
 Occup=    1.00000
   1    0.00077555294227986
   2    -0.052437927699806
   3    -0.077627393677799
   4     -0.01599658310367
   5     -0.39612282054187
   6    -9.3660245461468e-13
   7      0.18294776493828
   8     -0.24424498258932
   9    -6.6928362244968e-13
  10      0.13495023075555
  11    -0.0096888211894854
  12    -6.1642130478259e-14
  13     0.010261512837754
  14    -0.010690626407546
  15     0.015125984850833
  16    5.4518019644443e-14
  17    0.0043016647146231
  18    1.4415014284883e-14
  19    -0.014551257980565
  20      0.01626418925958
  21    7.8535261344213e-14
  22    0.0015344713813812
  23    1.835330223158e-14
  24    0.0050607157879291
  25      0.18015255761023
  26      0.27827468941462
  27     0.026045390660039
  28     -0.38432482027925
  29    -7.4240414303488e-13
  30    -0.081206116181938
  31     -0.18020136695989
  32    -4.429981845897e-13
  33    -0.036300245610333
  34    -0.015716334689531
  35    -3.5310684521867e-14
  36    0.0034654440368394
  37    0.0099332497105402
  38    -0.024744198666495
  39    -7.6068390954883e-14
  40    -0.017711872163816
  41    -3.9502295796141e-14
  42     0.001343727901129
  43     0.011333256238114
  44    4.3190419218171e-15
  45    -0.0023424825363666
  46    -2.676565168095e-14
  47    -0.090497409044598
  48      0.00135014309565
  49    0.0027416866489504
  50    0.0023829887425545
  51    -2.0027823186612e-14
  52    -0.010001533910487
  53    -0.0065423580536549
  54    5.8129741172405e-15
  55     0.001648087851094
 Sym= A
 Ene=               3
 Spin= Alpha
 Occup=    1.00000
   1     0.004020725152804
   2     0.094179529101882
   3      0.18586780508329
   4     0.066012406081596
   5      0.17358655896789
   6    1.5979010721257e-12
   7      0.46283306901426
   8      0.10344759654927
   9    1.1430104237864e-12
  10      0.26156542106227
  11    -0.0057008797534524
  12    1.0640655175182e-13
  13    0.0031622183111601
  14    -0.020744809895754
  15    -0.015175569734076
  16    -9.2916144156612e-14
  17    -0.0013532392092723
  18    -2.4644160723622e-14
  19    -0.016463501750049
  20    -0.016017133406039
  21    -1.3495733902142e-13
  22    -0.0012825445822513
  23    -3.1347593109251e-14
  24    -0.00042995472677132
  25    -0.073163972965989
  26      0.03381672573347
  27    -0.009596708252438
  28    -0.0017225570999348
  29    1.2660179449299e-12
  30     -0.41282986865214
  31    -0.013471034281398
  32    7.5407349608094e-13
  33     -0.13617042006621
  34    -0.00040281048114399
  35    5.8889517702514e-14
  36    -0.0093382138473722
  37    -0.030212749419195
  38    -0.028632225487784
  39    1.2974910749137e-13
  40    0.0041530861044207
  41    6.7450339514438e-14
  42    0.0094451768790794
  43    -0.0071459158470684
  44    -8.3099599997313e-15
  45    -0.0066142202715144
  46    4.5004822939636e-14
  47      0.17499295210458
  48     0.060891032736975
  49    0.0023091402866287
  50    -0.014735208212676
  51    3.4225805802332e-14
  52    0.0036267398718364
  53    -0.0052927613821494
  54    -9.4716692380966e-15
  55     0.012645316576486
 Sym= A
 Ene=               4
 Spin= Alpha
 Occup=    1.00000
   1     0.002927598807229
   2      0.21302496989222
   3      0.32481624746847
   4     0.054339996337903
   5    -0.051040309968596
   6    -2.9656280203125e-13
   7      0.15636765393568
   8     -0.04542809737134
   9    -2.1029227759519e-13
  10     0.055837618294281
  11    -0.00090514961624053
  12    -1.9884414600666e-14
  13    -0.0050619464386374
  14    -0.011949386415697
  15    0.00045807430548048
  16    1.7348352069536e-14
  17    0.0021690718946354
  18    4.6422782170525e-15
  19    -0.0089906374388772
  20    0.0057418375028005
  21    2.4142071491128e-14
  22    0.0011067983989684
  23    5.4673940855354e-15
  24    -0.0024398215967593
  25     -0.35712055808627
  26     -0.36295809170598
  27    -0.044018450279042
  28     -0.13130371551354
  29    -2.348492463051e-13
  30      0.17240502289293
  31    -0.027783110777479
  32    -1.4151652305326e-13
  33     0.025101718457434
  34    -0.0068936997557266
  35    -1.0590125041394e-14
  36    -0.0038805550203155
  37      0.01022199586851
  38    0.0099262236830103
  39    -2.4083045532022e-14
  40    -0.011584550312241
  41    -1.2535644705824e-14
  42    -0.017419257520222
  43    -0.014922677778828
  44    3.8069376510975e-16
  45     0.011306706571514
  46    -8.7842475428514e-15
  47     -0.29697418621456
  48    -0.017951175496591
  49    0.0024342694258564
  50     0.033077350668959
  51    -6.2793665644297e-15
  52    -0.020627618323569
  53    -0.0089255236081585
  54    1.7574694849877e-15
  55    0.0042366919456165
 Sym= A
 Ene=               5
 Spin= Alpha
 Occup=    1.00000
   1    -0.010490900623298
   2      0.41944139263943
   3      0.49424281359221
   4     0.049520495820712
   5    -0.023661675826888
   6    1.2694889380841e-13
   7    -0.039831774023465
   8    -0.016168095072629
   9    9.037155541123e-14
  10    -0.041102043605994
  11    -0.00011759393874954
  12    8.6414910233114e-15
  13    0.0031983663153664
  14     0.011413928575563
  15    0.0059322935340702
  16    -7.3493678423795e-15
  17    0.00068807876666699
  18    -1.9636671740059e-15
  19      0.01238551049989
  20    0.0043351336955535
  21    -1.0747643134947e-14
  22    0.0018072483074357
  23    -2.3895558465255e-15
  24    -0.011314685980529
  25      0.22222338016688
  26     0.060840521108418
  27    -0.014928830004704
  28     0.046443842412282
  29    1.0050747375957e-13
  30      0.10474548478488
  31    -0.015651898214953
  32    6.0080262345585e-14
  33    -0.041495502142242
  34    0.00069346792708235
  35    4.5946973569421e-15
  36    -0.0098396286002492
  37     0.021013244968524
  38     0.013903373776003
  39    1.0337323917815e-14
  40    0.0011964689727646
  41    5.291115513949e-15
  42     -0.01396966499224
  43    -0.003499723130313
  44    -4.8341884961197e-16
  45    -0.0075360602918613
  46    3.7123068266181e-15
  47     0.067953494452701
  48    -0.018053218343826
  49    3.4406258436928e-06
  50    -0.011732972176876
  51    2.7566112976683e-15
  52     0.009451838950045
  53    0.0093872487245513
  54    -9.5057697763602e-16
  55    -0.007302783204439
 Sym= A
 Ene=               6
 Spin= Alpha
 Occup=    1.00000
   1      0.99962922300327
   2    0.0034394514939945
   3    -0.016070413074887
   4    -0.0051268975690682
   5    -0.00052180359016271
   6    -5.8692252104168e-17
   7    -0.0024552217235702
   8     0.002073676840427
   9    -3.9346707015946e-16
  10    0.0077176845588071
  11    0.00032639295667212
  12    -2.5536937648258e-16
  13    0.00081267872906855
  14    0.00030935016753349
  15    6.7381823931192e-05
  16    -4.0991486737422e-17
  17    0.00030246559174455
  18    -4.1521357696031e-17
  19    -0.0018312018062256
  20    -0.00090073610236976
  21    3.2459050402003e-16
  22    -0.00013368044062604
  23    6.1130943198368e-17
  24     0.069895208365652
  25    0.00051652294347848
  26     0.011140576740883
  27    0.0032581403597541
  28    0.00066364021524228
  29    -6.612304535398e-17
  30    0.00085262261246885
  31    0.0023282042102144
  32    3.4272839757648e-16
  33    0.0086890197804488
  34    4.398608280468e-05
  35    1.2772667986664e-16
  36    0.0010872881317602
  37    -0.00014897033554635
  38    -0.00016905173641578
  39    -3.18896602965e-18
  40    5.1806064659529e-05
  41    -3.4573265256315e-18
  42    0.0021104805509625
  43    0.0015763184957534
  44    2.6442602325926e-16
  45    0.00024999080238589
  46    1.2114712491781e-16
  47    1.129270479509e-05
  48    0.0019147038804754
  49    -0.00011344700008496
  50    0.0001215865000394
  51    -1.2277350959774e-17
  52    -0.00022786879884631
  53    -0.00075875157861578
  54    -3.779417161828e-17
  55    0.00022577981579821
 Sym= A
 Ene=               7
 Spin= Alpha
 Occup=    1.00000
   1    -0.069827448621028
   2    0.0033563880236475
   3    0.0023110021850123
   4    -0.0010883645058713
   5    -0.00066946721468306
   6    -3.260070331719e-15
   7    -0.001693538093896
   8    0.00018389954578914
   9    -5.0407296572723e-15
  10    0.0005811269664231
  11    5.2936649309558e-05
  12    -2.1923560791225e-15
  13    0.00033296047678248
  14    -0.00015554590335663
  15    -1.8161013864897e-05
  16    -5.7427864355614e-16
  17    -5.4002920707599e-05
  18    -1.9756981767062e-16
  19    -0.00085801884103351
  20    -0.00052439798655825
  21    3.2039566889367e-15
  22    -0.00015409219161864
  23    7.6849652532858e-16
  24      0.99923939923181
  25    0.0036693384543222
  26    -0.006554343086591
  27    -0.0019679828078737
  28     0.002561743374927
  29    -2.5434053585569e-15
  30    0.0038927156905686
  31    -0.0023040808418493
  32    2.0259215276039e-15
  33    0.0014626189007286
  34    -0.00062532940981273
  35    1.426095306148e-15
  36    0.00049357700222841
  37    0.00088430697779474
  38    0.00033526893357776
  39    -1.1006690995246e-16
  40    0.00053886958764932
  41    -8.9521896113471e-17
  42    -0.00052081785700095
  43    -1.1136642783218e-05
  44    2.4164502055338e-15
  45    -0.00035877681419006
  46    1.0146588187962e-15
  47    -0.00031723685535867
  48    0.0055230846855916
  49    0.00060799325030284
  50    0.00051543761335292
  51    -1.8966271503286e-16
  52    -0.00028704708923694
  53    -0.0018344230702264
  54    -3.7110056694853e-16
  55    0.0014529154087738
 Sym= A
 Ene=               8
 Spin= Alpha
 Occup=    0.00000
   1    0.0063986671195544
   2      0.13359303598132
   3      0.53502368357429
   4       3.0458276968906
   5     0.021536883298839
   6    1.8782197391924e-13
   7    -0.063699015767836
   8    -0.032235472179306
   9     1.17803331391e-13
  10     -0.30768580858166
  11     -0.39870456361906
  12    -3.116180417494e-13
  13     -0.82061889710263
  14    -0.0016407946637679
  15    0.0021303370198081
  16    -6.1642458587544e-15
  17    -0.0035630902618988
  18    -3.2237809732739e-15
  19      0.04946297374463
  20     0.027132744448474
  21    7.6263621996764e-15
  22    0.0073982692175637
  23    -8.0356727110947e-15
  24    0.0031610455367686
  25    -0.064506063684627
  26      -0.5034533098575
  27      -3.1273431618642
  28    -0.046305659010331
  29    8.0773027887173e-14
  30    -0.036114462827188
  31     -0.13038087266876
  32    5.2015622046506e-14
  33     -0.42494033937869
  34     -0.39753343088121
  35    -4.7700641847052e-13
  36      -1.7194562853286
  37      0.02026069779577
  38    0.0028750969203646
  39    2.1285520991701e-15
  40    0.0013051657870254
  41    1.1950240753925e-14
  42    -0.044116557198549
  43    -0.070645224772145
  44    -1.5569370315372e-14
  45    -0.010863222697696
  46    -3.2231755522995e-14
  47     0.011857783163084
  48    -0.072569788653873
  49      0.27964662520929
  50    -0.0044075134803659
  51    -5.5988482425512e-15
  52    -0.011591969122881
  53     0.061600445447357
  54    7.4668733025134e-14
  55     -0.12931350615308
 Sym= A
 Ene=               9
 Spin= Alpha
 Occup=    0.00000
   1    -5.5968459870585e-14
   2    -1.5021781868498e-13
   3    -4.9544353346155e-13
   4    2.5806972688274e-12
   5    -2.7334077568643e-13
   6     -0.45092106946846
   7    -3.4040635587631e-13
   8    8.3910566629548e-14
   9     -0.38884406986976
  10    -1.8915534473418e-13
  11    2.8657181155529e-13
  12     -0.25456682569427
  13    -1.0301811280494e-13
  14    -1.2545158664566e-14
  15    2.1539160860326e-14
  16    -0.0042262239271296
  17    5.3951913674019e-14
  18    -0.015878767247931
  19    -1.8650579472784e-14
  20    -2.134373641181e-14
  21    0.0026996738179813
  22    1.0278463348471e-13
  23    -0.016741837825568
  24    -5.8181099951407e-14
  25    -2.2920129027103e-13
  26    -2.1356939275161e-13
  27    -2.1199794524458e-12
  28    -5.7415767929972e-14
  29      0.47710315225306
  30    -2.2450140058472e-13
  31    -3.6363256424225e-14
  32      0.45697564583416
  33    2.1656407930605e-13
  34    -3.1028477391334e-13
  35      0.27279359303215
  36    -7.7908935598153e-13
  37    7.5181156507179e-14
  38    -1.768364584897e-15
  39    -0.0092199489487847
  40    2.7691244806077e-14
  41    -0.0013453724807792
  42    2.5796835364726e-13
  43    2.1272498879529e-13
  44    -0.008614036273551
  45    3.6364061299522e-14
  46    0.0057562534830907
  47    -7.4174900139159e-14
  48    3.2179817977423e-13
  49    6.3585917990334e-13
  50    -1.2051464568945e-14
  51     0.022114516124861
  52    -5.0975768649222e-14
  53    -3.373706569435e-13
  54     0.046194466060248
  55    -3.1372098429082e-13
 Sym= A
 Ene=              10
 Spin= Alpha
 Occup=    0.00000
   1     0.062126369677761
   2      0.25757523652759
   3      0.52591773012606
   4      -1.3717347246374
   5     0.082246443117251
   6    7.2292056373153e-14
   7    -0.024941125957599
   8    -0.024877507919142
   9    -3.7214441594863e-13
  10     0.070560205596645
  11     -0.32949948594384
  12    -1.4266777681007e-12
  13     -0.39472503432925
  14    -0.0085312655561519
  15      0.01266743335609
  16    -1.5189312926763e-14
  17    -0.024871382635104
  18    -1.1664712989495e-13
  19    -0.041444660532684
  20    -0.0014201841719404
  21    6.6978833565575e-14
  22    -0.010059279193883
  23    -1.444133654727e-13
  24     0.045664534143465
  25      0.14860683752273
  26      0.25668620741332
  27      0.21777660765626
  28    -0.071212415493919
  29    2.4103178884875e-13
  30     -0.24113077407706
  31    -0.0026421854928565
  32    5.1737744272321e-13
  33     -0.25339589237329
  34      0.37730179102759
  35    9.4971423734118e-13
  36       0.8231564066711
  37    -0.012780498066781
  38    -0.015782061223634
  39    3.524835099464e-14
  40    -0.021225466320134
  41    -3.9815680760842e-14
  42     -0.15758504050117
  43     -0.10346465714639
  44    -5.4354890261285e-14
  45      -0.0330164233754
  46    -1.117647381541e-13
  47     0.049934967652419
  48     -0.21300012881689
  49     -0.25442271314455
  50    -0.0039173881506823
  51    4.1216063116838e-14
  52     0.008441156199414
  53      0.19938224851721
  54    8.7311816777393e-14
  55    -0.0025480291468257
 Sym= A
 Ene=              11
 Spin= Alpha
 Occup=    0.00000
   1     0.010962774985396
   2     -0.10049024045717
   3     -0.42004359980611
   4     -0.72766335759497
   5      0.23545766022185
   6    6.6712448815283e-13
   7      0.56963901809334
   8     0.053096988947104
   9    -1.8076184598382e-13
  10      0.46896957111838
  11     -0.38045394662293
  12    -2.5382205920606e-12
  13      0.15305682091752
  14     0.048817250340222
  15    -0.063860165099983
  16    5.663016954855e-15
  17    -0.029304597555475
  18    -2.9084513044569e-13
  19     0.067929430522269
  20     0.034813302461906
  21    -1.8747021814527e-13
  22    -0.022728943448309
  23    -5.2845651415417e-13
  24     0.036491147540171
  25      0.23238919832068
  26      0.40248232414272
  27       0.5093579118419
  28      0.13639604049281
  29    -6.501778617659e-13
  30      0.62813106837553
  31      0.12241225062274
  32    -1.1946942220962e-13
  33      0.38666139536563
  34     0.077116201912182
  35    2.4466914784728e-12
  36     -0.25206227964363
  37    -0.093477393657367
  38     0.052027939097278
  39    -9.9569941719074e-15
  40     0.024716953882266
  41    -2.7763955609917e-13
  42    -0.059341095853378
  43    5.0792382493438e-05
  44    -4.1918148340179e-13
  45     0.020146742598328
  46    -4.2594455987614e-13
  47     0.022937402819933
  48      0.11937968683685
  49    -0.043821505690517
  50     0.025547457843452
  51    1.4015294511853e-13
  52     0.016552417485406
  53     0.083870834727137
  54    1.122257305899e-12
  55      0.35266107572319
 Sym= A
 Ene=              12
 Spin= Alpha
 Occup=    0.00000
   1     0.008283166580163
   2     0.045911345103296
   3      0.19004372531617
   4     -0.39401460264841
   5    -0.090770778441117
   6    -3.0735253093014e-13
   7    -0.050464665879276
   8     -0.46853898996534
   9    -9.5970235541885e-14
  10     0.077850441114011
  11      0.56364033851477
  12    -1.4622937556742e-13
  13     -0.26243181876789
  14    -0.026844734754496
  15     0.054970493707949
  16    1.5523488355584e-15
  17    -0.0093440449682127
  18    -1.750335069609e-13
  19    -0.034690044196385
  20        0.106780284212
  21    -3.7560321003144e-13
  22     0.029391078322638
  23    -1.0810240867968e-13
  24     -0.11132878262939
  25     -0.38826433265577
  26     -0.58947839677927
  27      0.46102142020727
  28     -0.32659445202273
  29    -6.6028007764396e-13
  30       0.1239949449305
  31    -0.056106848183564
  32    -6.0674336371303e-13
  33     -0.27916683415642
  34     -0.20094620045773
  35    2.203311646438e-13
  36    -0.056909146951528
  37    -0.060276221818428
  38    -0.017685589441969
  39    1.094073656506e-13
  40    -0.031950706324341
  41    -1.6846839829361e-13
  42     -0.12723136714258
  43      0.15874957292008
  44    8.5694758015893e-13
  45     0.065471573288866
  46    -3.7126619076397e-13
  47      0.25031248360849
  48      0.60911717053697
  49     -0.32060853400795
  50     0.064130978971144
  51    1.1649349604677e-13
  52     0.033461613776446
  53    -0.010210264682944
  54    1.7119297311159e-12
  55      0.81873638840229
 Sym= A
 Ene=              13
 Spin= Alpha
 Occup=    0.00000
   1     -0.13535057720575
   2       -0.409592910409
   3     -0.11723884873642
   4       2.5797546887999
   5     -0.10246892958104
   6    -4.4359613106118e-14
   7       0.2528967843169
   8     0.022329642260081
   9    6.9095188741678e-13
  10      0.20084479217353
  11      0.86974028056288
  12    -1.0910348235962e-12
  13      -1.1537962398594
  14    -0.027239635506205
  15    -0.086646275228222
  16    -2.6118104442032e-13
  17     -0.10154862625347
  18    -2.0994701297854e-13
  19     -0.19976447978472
  20     -0.11157487393812
  21    -8.5595673979504e-13
  22    -0.062890882534165
  23    2.4725453063978e-13
  24      0.18737910946506
  25      0.55439349697548
  26      0.46444878795842
  27       -2.409914322854
  28      0.17735404774326
  29    -1.0169023623219e-12
  30      0.19378612440836
  31     0.048644559534062
  32    1.0568093930908e-12
  33     0.066579663277037
  34     -0.46995742788704
  35    -8.9932469248934e-13
  36      -0.3824615413031
  37     0.045573232934078
  38      0.13991965727599
  39    -2.9274225506932e-13
  40      0.15444826844977
  41    7.293843512821e-13
  42      0.11537969221661
  43    -0.090670424925189
  44    1.6363778128085e-14
  45      0.19611512546967
  46    -3.2640166298873e-13
  47     -0.19524351179219
  48     -0.69692262999265
  49     0.072206521693971
  50    -0.052842529648826
  51    -3.6931570136557e-14
  52    -0.031932922352265
  53     0.069397003805933
  54    -9.5316772847619e-14
  55     -0.64776634488534
 Sym= A
 Ene=              14
 Spin= Alpha
 Occup=    0.00000
   1    -0.071676607285025
   2     -0.11805587790556
   3      0.69975087464981
   4     0.066311282849195
   5     -0.90533200738103
   6    -2.239918851187e-12
   7      0.27865006987582
   8       2.0324251287369
   9    2.2172434683205e-12
  10      -1.0072683663507
  11     -0.57717421905845
  12    1.7448255489805e-12
  13      0.15236189385217
  14      0.12686856460187
  15     0.020201673125001
  16    3.4972261234904e-12
  17      0.37423176528117
  18    4.2573676593912e-13
  19      0.41639331799749
  20     -0.57130965513223
  21    -1.2876497891026e-12
  22     -0.23174736938924
  23    1.411771499681e-12
  24    -0.028855083028825
  25    -0.066522057160156
  26     -0.18389909651451
  27      0.41935608786759
  28    -0.085864577195762
  29    3.0571731968667e-13
  30    -0.051647691682094
  31      -1.1755326542097
  32    1.3129173432947e-12
  33     -0.30983133086271
  34      0.37887779120434
  35    -4.0128075542063e-13
  36     -0.28659498446827
  37     -0.06969882397862
  38      0.02406479717908
  39    3.8829246382887e-13
  40    -0.076615313421191
  41    -3.5550564983207e-12
  42      0.44169062447251
  43     -0.77230157882821
  44    -6.2690627837457e-13
  45     -0.38165647214587
  46    2.3207846977062e-12
  47      0.12504622300081
  48     -0.72531382965725
  49     -0.18498827062686
  50     0.079462517896629
  51    1.8098475892739e-12
  52     0.080277349762435
  53      0.40107027354086
  54    -4.8973065814969e-12
  55      0.13095833564243
 Sym= A
 Ene=              15
 Spin= Alpha
 Occup=    0.00000
   1     -0.14447233793703
   2     -0.30848116067194
   3     -0.28765168009861
   4     -0.47837114906982
   5     0.030362468864573
   6    4.6850661159215e-13
   7      0.15462294718797
   8      0.46899152171529
   9    5.8868848635897e-13
  10     -0.29737364240848
  11     0.065546324855942
  12    -3.5423405207679e-12
  13      0.12880557449362
  14      0.24974003752832
  15    -0.042806095759125
  16    1.4221809624512e-12
  17    -0.073510526946339
  18    1.3390872022572e-12
  19      0.40361613701273
  20    0.0095386974797721
  21    2.0760659882204e-12
  22    -0.076433401496348
  23    -7.9394877423597e-13
  24     -0.32659310843013
  25     -0.70673909108134
  26      0.52227180104316
  27     -0.34284193083077
  28      0.59074047114925
  29    2.3382760778243e-12
  30     -0.70009761377166
  31       -1.064966616334
  32    -3.6227895720749e-12
  33       1.2340541008233
  34        -0.12920266185
  35    -5.3552159783564e-13
  36     0.034034013372542
  37      0.19973837833789
  38     -0.14583009111568
  39    -1.2499156742552e-12
  40      0.50547938038808
  41    1.949547333836e-12
  42      0.32669487838413
  43     -0.16674863299016
  44    3.3084070194353e-12
  45     -0.19320776708359
  46    -6.0291153460111e-12
  47    -0.092005300696118
  48       1.0602532803869
  49      0.15760683640597
  50       0.3907102183913
  51    6.9053026404041e-13
  52     -0.41434183730716
  53     -0.14529657897177
  54    6.4744144035036e-12
  55      0.40631621828001
 Sym= A
 Ene=              16
 Spin= Alpha
 Occup=    0.00000
   1    -0.00039830140248152
   2    0.0025319776113978
   3     0.044182490335602
   4     -0.25334415541056
   5    0.0010679585861918
   6       -0.175233684975
   7    0.0043868763325418
   8     0.001590458935371
   9     -0.32444740239599
  10    -0.018150046814937
  11    -0.054278070220437
  12       2.0754669968787
  13      0.27250416732829
  14    0.0095207740451969
  15    0.0026494866643049
  16     0.017457858721404
  17    -0.0016723568999067
  18    0.0068499427507185
  19    0.0044631153361624
  20    0.0021454273269927
  21    -0.077283031988837
  22    -0.0050393588249804
  23    -0.015826872266698
  24     -0.01231803206407
  25    -0.022422329844004
  26     0.023200236388381
  27      0.30967336033539
  28    -0.0032928393205486
  29     0.051299951453235
  30    -0.0095632549301002
  31    -0.056685808669249
  32    -0.024641175499616
  33     0.014400529418633
  34      0.19030389303163
  35      -1.5235933248896
  36     -0.14140163869815
  37      0.00116026901766
  38    -0.0034463643709697
  39    -0.0026001763752712
  40    0.0087647863286567
  41    0.0057317437689146
  42    -0.018464606711965
  43    -0.017697464279086
  44     -0.11666892943376
  45    -0.003461297966585
  46    -0.045831119499062
  47    0.0075989677215971
  48     0.029223850183614
  49     -0.12288900316525
  50      0.01446670412384
  51    0.0015711805842916
  52    -0.0093899470516738
  53    -0.027299137700536
  54      0.10208844310453
  55       0.1116447097254
 Sym= A
 Ene=              17
 Spin= Alpha