[Molden Format]
made by pyscf v[2.13.1]
[Atoms] (AU)
O   1   8     0.21099695469856     0.00000000000000     2.15462460678861
N   2   7    -0.44776862100326     0.00000000000000    -0.03589262653049
H   3   1     1.18163474748449     0.00000000000000    -1.17386889907833
[GTO]
1 0
 s    8 1.00
                 11720  0.00070964594651845
                  1759  0.0054672722921914
                 400.8   0.027823118610189
                 113.7    0.10474773971146
                 37.03    0.28292084635691
                 13.27    0.44849523869833
                 5.025    0.27081688521277
                 1.013    0.01545029160744
 s    8 1.00
                 11720  -0.00031444341168873
                  1759  -0.0024821376810179
                 400.8  -0.012316355381583
                 113.7  -0.050538917343672
                 37.03   -0.13938490331632
                 13.27   -0.32507749481778
                 5.025   -0.22984830758785
                 1.013     1.0953793467883
 s    1 1.00
                0.3023                   1
 s    1 1.00
               0.07896                   1
 p    3 1.00
                  17.7   0.062679166281506
                 3.854    0.33353656587936
                 1.046    0.74123964163973
 p    1 1.00
                0.2753                   1
 p    1 1.00
               0.06856                   1
 d    1 1.00
                 1.185                   1
 d    1 1.00
                 0.332                   1

2 0
 s    8 1.00
                  9046  0.00069961741342552
                  1357  0.0053860546299287
                 309.3   0.027391021189057
                 87.73    0.10315059198201
                 28.56    0.27857066331743
                 10.21    0.44829484945412
                 3.838    0.27808592839527
                0.7466   0.015431561233271
 s    8 1.00
                  9046  -0.00030499009595337
                  1357  -0.0024080263785077
                 309.3   -0.01194444872518
                 87.73  -0.048925992909017
                 28.56   -0.13447272472496
                 10.21   -0.31511257770011
                 3.838   -0.24285783254964
                0.7466     1.0943822068542
 s    1 1.00
                0.2248                   1
 s    1 1.00
               0.06124                   1
 p    3 1.00
                 13.55   0.058905676772132
                 2.917    0.32046110671427
                0.7973    0.75304206179207
 p    1 1.00
                0.2185                   1
 p    1 1.00
               0.05611                   1
 d    1 1.00
                 0.817                   1
 d    1 1.00
                  0.23                   1

3 0
 s    3 1.00
                 13.01   0.033498726389998
                 1.962    0.23480080117413
                0.4446     0.8136829578829
 s    1 1.00
                 0.122                   1
 s    1 1.00
               0.02974                   1
 p    1 1.00
                 0.727                   1
 p    1 1.00
                 0.141                   1

[5d]
[7f]
[9g]

[MO]
 Sym= A
 Ene=               0
 Spin= Alpha
 Occup=    1.00000
   1    0.0015489516533758
   2     0.098652563910594
   3      0.18078156387625
   4     0.066382034831078
   5      0.14925172104158
   6    4.4710193297155e-14
   7      0.31427473955894
   8     0.062054110529615
   9    3.2069928810569e-14
  10      0.17212622381696
  11    -0.029620403321707
  12    2.1021094264818e-15
  13    0.0025136552173288
  14    -0.0096399178295396
  15    -0.018326519550876
  16    -2.6400933630723e-15
  17    -0.003041057466787
  18    -6.993843661366e-16
  19    -0.0057669764954856
  20    -0.016737308831912
  21    -3.6536687501174e-15
  22    -0.00042152483943001
  23    -8.6609118155657e-16
  24    -0.0056679497477802
  25     -0.11240496762972
  26     -0.12561282246501
  27     -0.05690327007963
  28      0.31015627738876
  29    3.5070491056953e-14
  30     -0.31708515914755
  31      0.15971752177057
  32    2.1167656953798e-14
  33     -0.10391700990616
  34     0.024217163318692
  35    2.0708979791685e-15
  36    -0.0081543426975667
  37    -0.026166771562562
  38    -0.022350122772973
  39    3.6173223597935e-15
  40     0.015975019327236
  41    1.8606891415886e-15
  42    0.0046420379360351
  43    -0.0090485167192849
  44    -2.3364046753436e-16
  45    -0.0041180736185514
  46    1.3229693071287e-15
  47      0.31978868726373
  48     0.098620741250121
  49     0.008452801842601
  50    -0.022406928205232
  51    9.5124903790849e-16
  52     0.015622453112193
  53    0.0025871571450476
  54    -3.1192211870267e-16
  55    0.0024559079999912
 Sym= A
 Ene=               1
 Spin= Alpha
 Occup=    1.00000
   1    -0.00059376287583397
   2     0.031207950473163
   3     0.042488599572938
   4    -0.0047072095343308
   5      0.56872821557945
   6    1.0075321221541e-14
   7     0.033113955962257
   8      0.43147944650454
   9    7.301940171987e-15
  10    0.0038170612164333
  11     0.081332672673805
  12    1.2539384303331e-15
  13    -0.0090935480084902
  14    -0.0067748346510649
  15    -0.0071628904160306
  16    -5.2104665231563e-16
  17    -0.0013619261749535
  18    -1.2816336029116e-16
  19    -0.0024110003666073
  20     -0.01795357068956
  21    -1.0087618388491e-15
  22    -0.0043190558949677
  23    -3.5790045107195e-16
  24    0.00027183952469985
  25     0.088920921301846
  26      0.25486968898845
  27      0.11761199425396
  28     -0.31891148166095
  29    7.9347198615857e-15
  30     -0.15240258157497
  31     -0.24563610037872
  32    4.6964666413032e-15
  33    -0.041350769865417
  34    -0.046074364211911
  35    -6.4341386595054e-16
  36    -0.0065884282783537
  37    -0.019573106135608
  38     0.017287380963164
  39    7.7332704749692e-16
  40    -0.0059787867539619
  41    5.1368532631557e-16
  42     0.015040716928646
  43    -0.0023371052753343
  44    -2.7751531307473e-16
  45    -0.0093414872401414
  46    6.8299291787294e-17
  47     -0.17871498711147
  48     -0.11404251007186
  49    -0.022314166953192
  50    0.0043471811315219
  51    2.5671488392325e-16
  52    -0.010768318789293
  53    -0.0072173176600753
  54    3.7356093509928e-17
  55     0.021304012146915
 Sym= A
 Ene=               2
 Spin= Alpha
 Occup=    1.00000
   1    0.0040492395367557
   2     0.076741782574366
   3     0.098255170753582
   4     0.019849502095675
   5     -0.30515668634747
   6    2.2800665783011e-12
   7      0.31664172765369
   8     -0.19267704534481
   9    1.6303470240957e-12
  10      0.20601474953077
  11     -0.01492415634893
  12    1.529684819268e-13
  13     0.012095196809991
  14    -0.013011017937217
  15    0.0089224436836077
  16    -1.3256289886026e-13
  17    0.0032109018753973
  18    -3.5196575778232e-14
  19    -0.014955823810427
  20    0.0091279115358654
  21    -1.9257865637913e-13
  22    0.0013939369021761
  23    -4.4536512649871e-14
  24    -0.0019767233498459
  25      0.22074274641523
  26      0.29922484954596
  27     0.013686376298353
  28     -0.29194247351219
  29    1.8067911892343e-12
  30     -0.22132496565096
  31     -0.15051900855079
  32    1.0761377044695e-12
  33    -0.098078616369366
  34    -0.010487333654988
  35    8.3618379504766e-14
  36    -0.0025476762377067
  37    0.0018289294222624
  38    -0.031490488016522
  39    1.8518338772162e-13
  40    -0.011831883610275
  41    9.622701507577e-14
  42    0.0024978674947479
  43    0.0078646537606748
  44    -1.1522832735423e-14
  45    -0.007455432003913
  46    6.4295099653106e-14
  47       0.0521473114903
  48     0.028999259904168
  49    0.0042140606045732
  50    -0.010868758165856
  51    4.8827572702411e-14
  52    -0.0019057892301533
  53    -0.0040008806645568
  54    -1.3490446618785e-14
  55    0.0030387911035413
 Sym= A
 Ene=               3
 Spin= Alpha
 Occup=    1.00000
   1    -1.7312402822066e-14
   2    -4.4983716463361e-13
   3    -6.0235111749226e-13
   4    -1.5570420363854e-13
   5    1.488109925994e-12
   6      0.46121976843488
   7    -1.6317610114241e-12
   8    9.4551655190292e-13
   9      0.32974340462069
  10    -1.0391024270001e-12
  11    7.7536470900565e-14
  12     0.030802567338183
  13    -5.1574938108112e-14
  14    6.7262382833906e-14
  15    -4.2182549680381e-14
  16    -0.026824120160976
  17    -1.5878413120597e-14
  18    -0.0071124454579522
  19    7.4027574922122e-14
  20    -4.4542740659509e-14
  21    -0.038877470563028
  22    -7.1824954790233e-15
  23    -0.0090210235614492
  24    1.116064252798e-14
  25    -1.0289056654528e-12
  26    -1.4012294022285e-12
  27    -1.8722336141096e-14
  28    1.4375961062601e-12
  29      0.36554341648903
  30    1.1016478857391e-12
  31    7.4162032399236e-13
  32      0.21781160050653
  33    5.0941471572977e-13
  34    5.6706960204936e-14
  35     0.017054177082774
  36    2.4337348332802e-14
  37    -7.9682340906554e-15
  38    1.5574757343665e-13
  39     0.037460083469865
  40    5.8737981707003e-14
  41     0.019463655437898
  42    -6.7497246313119e-15
  43    -3.1876207781347e-14
  44    -0.0022756620392066
  45    3.6825272381267e-14
  46     0.013052508618961
  47    -2.4041584251918e-13
  48    -1.46772494176e-13
  49    -2.6156866908055e-14
  50    5.0759436306055e-14
  51    0.0098714669262827
  52    1.0907832335307e-14
  53    1.8368324343061e-14
  54    -0.0027623694064091
  55    -1.570813782436e-14
 Sym= A
 Ene=               4
 Spin= Alpha
 Occup=    1.00000
   1    -0.0092498786271077
   2      0.34122404599895
   3      0.48164326963602
   4     0.075212423618895
   5    -0.034527194865357
   6    8.4470302693844e-14
   7      0.18771256721284
   8    -0.037073228713046
   9    6.2012460777536e-14
  10     0.069047998112574
  11    -0.0030017614978816
  12    5.5707323896042e-15
  13    -0.0035161219454754
  14    -0.009970787987335
  15    7.7097832874187e-05
  16    -4.7973881791471e-15
  17    0.0019966050798037
  18    -1.2357194560561e-15
  19    -0.0063000169756906
  20    0.0046796543980947
  21    -8.0036844616763e-15
  22    0.0014844738120406
  23    -1.9576038426132e-15
  24    -0.020001960245631
  25     -0.28539439812781
  26     -0.33267683824568
  27    -0.050408762377684
  28    -0.093137157455574
  29    6.7050017399363e-14
  30      0.14831351193806
  31     -0.02276602365382
  32    3.844929345066e-14
  33    -0.0042222189515143
  34    -0.0049729792443559
  35    3.4405847515628e-15
  36    -0.0078018955021288
  37     0.012389939136638
  38     0.010341810056246
  39    6.8670052435461e-15
  40    -0.0094580168185026
  41    3.5243454471515e-15
  42    -0.019873580073139
  43    -0.016321075502397
  44    -1.4703290105674e-15
  45    0.0078102653550521
  46    2.0258026932996e-15
  47     -0.23170287832291
  48     -0.01263891130733
  49     0.002961079479645
  50     0.025652614726258
  51    1.8877234010696e-15
  52    -0.015645922216446
  53    -0.0058730242657871
  54    -5.710839641565e-16
  55    0.0028557490328049
 Sym= A
 Ene=               5
 Spin= Alpha
 Occup=    1.00000
   1     0.023470698052369
   2      0.31609956172355
   3      0.33874419565766
   4     0.019124357831433
   5      0.04499786503394
   6    -1.8371166487076e-15
   7     -0.21790129188404
   8     0.032101239148007
   9    -2.3477601444846e-15
  10     -0.13777843909745
  11    0.0045704195285824
  12    -7.21115381638e-17
  13    0.0013589750400947
  14     0.020352425888326
  15    0.0053562907679446
  16    9.7779293953762e-17
  17    -0.00057106581387698
  18    9.964377157002e-18
  19     0.020294158752144
  20     0.002224794549032
  21    4.9358097858714e-16
  22    0.0012446610831817
  23    2.2389890387796e-16
  24    -0.009653033153639
  25      0.27950743084913
  26     0.092558139171465
  27    -0.0032447826372353
  28      0.15417763328847
  29    -1.4984289186988e-15
  30      0.15402071571112
  31     0.030431407326523
  32    -8.5101375754556e-17
  33    -0.0076121707701654
  34    0.0052246082084043
  35    -8.840471211708e-17
  36    -0.006668217783614
  37     0.020668067744687
  38     0.021672179351443
  39    -1.2021672088707e-16
  40    0.0069423930345431
  41    -1.3996576058872e-16
  42    -0.010089522557156
  43    7.317650701602e-05
  44    5.9214981484007e-16
  45    -0.0081365655281378
  46    2.6458394031134e-16
  47       0.1207243312634
  48    -0.026774281879973
  49    -0.0020556926766443
  50      -0.0168990725666
  51     -3.0790137074e-17
  52     0.015364003302993
  53     0.013392713785923
  54    -2.2106145846388e-16
  55    -0.010622503602113
 Sym= A
 Ene=               6
 Spin= Alpha
 Occup=    1.00000
   1      0.91436845157916
   2    -0.00099312331614897
   3    -0.018347227785654
   4    -0.0046992027029563
   5    -0.0010749170077915
   6    5.0593382070671e-16
   7    0.0063601850371386
   8    0.0014593808019308
   9    -8.4495580034243e-16
  10     0.012523253299032
  11    0.00019764145241534
  12    -8.8736421510413e-16
  13    0.00074518169215338
  14    -0.00054113621650084
  15    -0.00017472444788353
  16    -3.3213515890654e-16
  17    0.00029706309097652
  18    -1.3127134285914e-16
  19    -0.0027249049145243
  20    -0.0010989624244956
  21    1.2430778725249e-15
  22    -0.00020578262328165
  23    2.7821403557053e-16
  24      0.40943927896602
  25    -0.012066500463852
  26    -0.00037814557582937
  27    0.0017363806049683
  28    -0.0036841919329951
  29    3.9954598546152e-16
  30    -0.00066026410004167
  31    0.00059389158198056
  32    1.7697671273138e-15
  33    0.0089520491441632
  34    -0.00038017881625888
  35    6.7987723465706e-16
  36    0.0012850984293913
  37    -0.00038624268275036
  38    -0.00052139932828286
  39    9.4904656426692e-17
  40    -6.8641751433565e-05
  41    3.8404378645113e-17
  42    0.0018578638220263
  43    0.0012038663897313
  44    1.0382971135793e-15
  45    0.00049291383022828
  46     4.95726613551e-16
  47    -0.0070792639472878
  48    0.0043577647738124
  49    0.00019379557846519
  50    0.0012012812468353
  51    -3.996760812527e-17
  52    -0.0010084417313136
  53    -0.0018483398651743
  54    -1.671884480047e-16
  55    0.0011059401500631
 Sym= A
 Ene=               7
 Spin= Alpha
 Occup=    1.00000
   1     -0.40932348624835
   2    0.0098319634064544
   3     0.017378297454839
   4     0.001877493582526
   5    -0.0010638040940401
   6    1.5084378620063e-15
   7    0.00017350202666851
   8    -0.0010148326326495
   9    -1.3432305480611e-15
  10    -0.0020007614456071
  11    -9.1895290784181e-05
  12    -1.6644380774803e-15
  13    7.8651751798266e-05
  14    -0.00015713670536836
  15    4.3323645202001e-05
  16    -7.8866580419287e-16
  17    -0.00013386838591163
  18    -2.4122689964663e-16
  19    -4.8534441603604e-05
  20    -0.00010371191740439
  21    2.5082191709953e-15
  22    -6.5440203717666e-05
  23    6.1161312173079e-16
  24      0.91398021445638
  25    0.0054501548475804
  26    -0.010226807074005
  27    -0.0033996985726918
  28    0.0021626195330396
  29    1.2384378415065e-15
  30    0.0050079582756621
  31    -0.0034606961099181
  32    3.9274629240141e-15
  33    -0.0024527428078977
  34    -0.0006265070447316
  35    1.4624529585246e-15
  36    -0.00010071172450044
  37    0.0012227469814963
  38    0.00057188566644899
  39    2.6763581523794e-16
  40    0.00045626053027701
  41    1.0798503919382e-16
  42    -0.0014977382815149
  43    -0.00067461013620686
  44    2.1525100908301e-15
  45    -0.00051288447951823
  46    1.0396065424102e-15
  47    -0.00013225637053404
  48    0.0042768062325823
  49    0.00062767438417596
  50    0.00035939194294051
  51    -7.5512425820043e-17
  52    -0.00011960348004939
  53    -0.0013571625233412
  54    -3.655726204224e-16
  55    0.0012056060247949
 Sym= A
 Ene=               8
 Spin= Alpha
 Occup=    0.00000
   1    -1.5926877996517e-16
   2    2.5117080662136e-15
   3    1.5631046472639e-14
   4    7.4451462050778e-15
   5    -2.5646744525268e-15
   6     -0.42849322458982
   7    4.8460103984957e-15
   8    -6.6897168797044e-15
   9     -0.34851931884061
  10    -3.8008983406955e-15
  11    -1.8039734069436e-14
  12     -0.12960559605154
  13    -7.9942981932526e-15
  14    -4.5950386105425e-16
  15    5.2985210123137e-16
  16    -0.0050507267528255
  17    -4.7169424615847e-16
  18    -0.00045446625668061
  19    5.7813283660531e-16
  20    7.5006313689436e-16
  21     0.012911643360467
  22    -1.6769761788665e-15
  23    0.0020830127117056
  24    -7.7053971142636e-16
  25    1.9757516305208e-15
  26    2.3889872372169e-14
  27    3.5561394873669e-14
  28    -2.0763884645234e-14
  29      0.58598828687346
  30    2.4524490287159e-15
  31    -1.0575052144041e-14
  32      0.50357902651997
  33    -1.1239946725277e-14
  34    1.3177889484277e-13
  35     -0.20766246317259
  36    -4.2704414535431e-14
  37    1.9777343054875e-15
  38    -3.0076663774131e-16
  39    -0.014498473340013
  40    -1.4779117083288e-15
  41     0.018043853724863
  42    -3.3378798333127e-15
  43    -1.9609882600847e-15
  44    -0.0043590442235609
  45    3.7671386616833e-15
  46     0.012610161194538
  47    -1.7713763958382e-15
  48    -6.3837732566958e-14
  49    -5.0733808073377e-14
  50    2.9979795168976e-15
  51     0.013763608707109
  52    -1.6827736035983e-15
  53    7.453676289205e-15
  54     0.018391426840293
  55    -1.3023469373018e-14
 Sym= A
 Ene=               9
 Spin= Alpha
 Occup=    0.00000
   1    3.6497263844633e-16
   2    -1.1964801368852e-14
   3    -8.1152173747906e-14
   4    -1.7113243119957e-13
   5    2.6254203183247e-14
   6     -0.28632427870272
   7    2.0985572686675e-15
   8    2.7879124671608e-14
   9     -0.19312844335221
  10    3.8921928442019e-14
  11    4.6722223788037e-15
  12      0.21120340124228
  13    8.2181323889161e-14
  14    1.5436139947025e-15
  15    -1.7243522864932e-15
  16    0.0094546646420085
  17    -1.4805591999174e-16
  18    0.0089690297967345
  19    -5.5404162945135e-15
  20    -1.9367446604613e-15
  21    -0.0035990189349858
  22    6.1654269851099e-16
  23     0.012499274687799
  24    8.9236143390181e-17
  25    -3.6840674275189e-15
  26    5.3498428234985e-15
  27    5.5433821577309e-14
  28    5.3605821683965e-14
  29    -0.057629776392184
  30    7.6740623066887e-15
  31    5.3157561898934e-14
  32    -0.082325237865639
  33    7.706593814295e-14
  34    -3.1643875242438e-13
  35      0.90084267113259
  36    1.3787627483542e-13
  37    -3.9748830840236e-15
  38    1.5388328390508e-15
  39    -0.0093453060730385
  40    4.4436109651949e-15
  41     -0.01306196672071
  42    1.5932855803488e-14
  43    7.9425758828422e-15
  44     0.017169516293935
  45    -1.0615992437703e-14
  46      0.04036023533989
  47    5.5785911204003e-15
  48    1.6321163196127e-13
  49    1.2486924438223e-13
  50    -4.3199300329362e-15
  51     0.012736676610069
  52    3.3260669844899e-15
  53    -3.4876223667617e-15
  54    -0.033324500813653
  55    3.1128364973788e-14
 Sym= A
 Ene=              10
 Spin= Alpha
 Occup=    0.00000
   1    1.7648304759623e-14
   2    1.8048740647647e-13
   3    1.1590034148052e-12
   4    4.1120291381049e-12
   5    -4.1673710950548e-13
   6      -0.2650796863383
   7    -2.3768099203949e-13
   8    -1.7053771605229e-13
   9    -0.0021147553764743
  10    7.346521721573e-14
  11    4.3061740169347e-13
  12       1.6299294291533
  13    1.0850476644485e-12
  14    3.7657663461658e-13
  15    1.8785043451086e-14
  16    -0.034241198915212
  17     5.00688071294e-13
  18     0.080847872432542
  19    4.9915667674337e-13
  20    -3.338793539306e-14
  21    -0.041598617805706
  22    1.0924191284243e-12
  23      0.13034341908563
  24    6.6751723225383e-14
  25    8.081445373017e-13
  26    1.6727010304885e-12
  27    -5.3000653917774e-12
  28    1.1600814144144e-12
  29      0.36206568233303
  30    -7.9599129721922e-13
  31    4.2070936100669e-13
  32     -0.38334402911987
  33    -1.9154028025461e-12
  34    -1.6302087241637e-12
  35      -1.2958480880467
  36    -1.754601630968e-12
  37    -4.8552052778259e-14
  38    1.3603494297439e-13
  39    -0.018999163873457
  40    7.0020251326761e-14
  41     -0.02724393285016
  42    -2.5178354590353e-13
  43    -2.1218072866515e-14
  44     0.020600441056893
  45    3.4192119673863e-13
  46     0.086022874433428
  47    -1.257295019346e-12
  48    -7.7739059919853e-13
  49    -1.5951712898637e-12
  50    -1.497423166757e-13
  51    -0.027908777769863
  52    8.0129375656162e-14
  53    -1.7064300722852e-13
  54    -0.016221613575473
  55    1.8482297384645e-13
 Sym= A
 Ene=              11
 Spin= Alpha
 Occup=    0.00000
   1    0.0054429720090847
   2     0.039860714016234
   3      0.24514086796383
   4      0.80269058583256
   5     -0.10756996914779
   6    1.2253135004675e-12
   7    -0.022535821272707
   8    -0.032491948030087
   9    7.2717712932034e-14
  10     0.024708557351854
  11      0.17777040522531
  12    -8.0419094870812e-12
  13      0.18482422994205
  14     0.077452511842901
  15     0.004202085541662
  16    1.8064643841787e-13
  17      0.10277795156303
  18    -4.0942000325167e-13
  19      0.10578625426698
  20    -0.0029146996526217
  21    1.9065143905795e-13
  22      0.22283361071211
  23    -6.4673967282641e-13
  24     0.015327110994711
  25      0.17235338607629
  26       0.3544286014839
  27      -1.0060664212802
  28      0.25893508133102
  29    -1.8394808660005e-12
  30     -0.15178458395767
  31      0.08327839897282
  32    1.9543149755619e-12
  33     -0.38992963763027
  34     -0.38892432033661
  35    6.2869028608565e-12
  36     -0.37267536852746
  37    -0.011799819783734
  38     0.025863964446303
  39    1.0806440368262e-13
  40     0.014165591965834
  41    1.2954262720932e-13
  42    -0.066132337469004
  43    -0.0054324464998735
  44    -6.4847298019159e-14
  45     0.071979205891615
  46    -4.1604350669304e-13
  47     -0.26320932021093
  48     -0.22138509700617
  49     -0.32304370667299
  50    -0.030279431896564
  51    1.3284449042415e-13
  52     0.017847568364663
  53    -0.013486869399462
  54    1.2649620552364e-13
  55      0.04512161375947
 Sym= A
 Ene=              12
 Spin= Alpha
 Occup=    0.00000
   1    2.9127929154146e-14
   2    1.1476237225432e-13
   3    9.5562837102591e-14
   4    -6.8350410051816e-13
   5    -7.9507084785484e-15
   6     -0.49870437939078
   7    9.0542799733852e-14
   8    -3.3348687529013e-14
   9      0.24301734162059
  10    4.9092662363119e-15
  11    -7.9030287121548e-14
  12     -0.14768170081761
  13    1.5348933447763e-14
  14    -2.4992384238241e-14
  15    7.6209686920542e-15
  16    -0.045777039256487
  17    -2.5572605691935e-14
  18    -0.091399621119322
  19    -2.5355768501836e-14
  20    4.9800404308982e-14
  21       -0.319873329415
  22    -9.3376692746756e-14
  23     0.036213667950585
  24    -2.2140531107123e-14
  25    -4.0595225019813e-14
  26    1.1476086888855e-13
  27    5.4307120878609e-13
  28    -1.2398732692432e-13
  29     -0.47443221766436
  30    4.2259856963943e-14
  31    2.9143880188362e-14
  32      0.14889330660883
  33    3.4768232009042e-14
  34    6.3566117885843e-13
  35     -0.44035399877966
  36    -1.2228899080201e-13
  37    8.9462514724569e-16
  38    -1.8962666259962e-14
  39      0.24575260551422
  40    1.099942365488e-14
  41     -0.11329201726088
  42    -2.5631207967626e-14
  43    2.0788084783372e-14
  44      0.47143331831021
  45    -1.8745560677219e-14
  46     0.034649082815048
  47    8.4227659968204e-14
  48    -3.1398885646014e-13
  49    -1.1225033972325e-13
  50    8.1294490715073e-15
  51    -0.027863783314185
  52    -2.1961921793422e-14
  53    -1.3212340070805e-13
  54      0.66317647361217
  55    2.5367317890575e-14
 Sym= A
 Ene=              13
 Spin= Alpha
 Occup=    0.00000
   1    -4.0712478653634e-14
   2    -1.6558384054115e-13
   3    -3.3727354325543e-13
   4    4.4484303729545e-13
   5    -1.26580637219e-13
   6     -0.28901121205398
   7    2.2377339872473e-13
   8    9.2876604935804e-14
   9    -0.039824808458542
  10    1.676578269515e-13
  11    3.2841635008425e-13
  12     -0.87744789371623
  13    -2.9175413744581e-13
  14    -2.4489711165904e-14
  15    1.9732340983502e-15
  16      0.37955954434118
  17    -4.0855033704442e-14
  18      0.20305224477791
  19    -5.7113242905948e-14
  20    3.1002770352222e-14
  21      0.55975797446582
  22    -3.8405245124756e-14
  23      0.17166425560625
  24    1.0324293835498e-14
  25    7.5360029664193e-14
  26    2.6679679257205e-13
  27    -5.5576650628373e-14
  28    9.5199979719452e-14
  29      0.43420747360615
  30    1.7676753897045e-13
  31    1.1487453051449e-13
  32    0.0083621131943461
  33    1.8853341848383e-13
  34    -2.5176033887072e-13
  35      0.69959785460198
  36    -2.0852632176807e-13
  37    5.994003261361e-15
  38    -2.1354260904367e-14
  39      0.36761654890341
  40    5.4485274388579e-14
  41     -0.17844241088905
  42    9.5547287164009e-14
  43    8.0293351578561e-14
  44         0.67171485452
  45    3.1922616359218e-14
  46     -0.17367174640103
  47    1.4670565298739e-14
  48    -4.2321278185086e-13
  49    2.5569729339166e-14
  50    -1.6177732822288e-14
  51    -0.051186079956472
  52    3.0051488947209e-14
  53    6.5944782843243e-14
  54      0.16218014166751
  55    1.0134889677639e-13
 Sym= A
 Ene=              14
 Spin= Alpha
 Occup=    0.00000
   1    7.3190305412055e-14
   2    2.1054161647036e-13
   3    1.0461879667048e-13
   4    3.5111141973711e-13
   5    4.1699684515091e-13
   6     -0.62992095046593
   7    -3.8958197538755e-13
   8    -8.6743038237355e-13
   9       1.8663602361099
  10    -4.7002980466225e-14
  11    -6.3695602853049e-14
  12     -0.16983643771767
  13    2.3492288250508e-13
  14    9.6496167561636e-14
  15    1.223990609411e-13
  16      0.22480610007653
  17    -4.8771566107109e-14
  18      0.42209458330605
  19    1.0585386036398e-13
  20    4.4723387981364e-14
  21     -0.54967293163759
  22    9.7532940630312e-14
  23     -0.41130948412203
  24    9.5704006495317e-14
  25    1.202890551405e-13
  26    -1.1776731617076e-12
  27    -4.4150298435698e-13
  28    7.1937090990664e-15
  29     -0.40862098910774
  30    -3.1755463739668e-13
  31    1.6761685686725e-14
  32     -0.16088100737828
  33    -1.3901082648822e-13
  34    -2.9572021697923e-13
  35      0.11191181103688
  36    1.2461768580249e-13
  37    1.5699668975734e-14
  38    -2.1562049746871e-13
  39     0.029122536369353
  40    7.1397465865355e-14
  41     0.019902003366639
  42    -2.8221720914809e-13
  43    3.1999549430586e-13
  44      -1.3531675776006
  45    1.525504757858e-14
  46     0.011760072644034
  47    -1.7629602362341e-13
  48    1.4507431856942e-12
  49    -2.005765022981e-13
  50    1.1396737239175e-13
  51      0.10040205252349
  52    -1.5826620561066e-13
  53    -2.1342950895105e-13
  54     -0.85344671910994
  55    1.3502331045071e-13
 Sym= A
 Ene=              15
 Spin= Alpha
 Occup=    0.00000
   1    3.0686298924679e-13
   2    6.1533253363243e-13
   3    -2.7391583718551e-12
   4    -8.2451495727741e-13
   5    1.3334454998214e-13
   6     -0.36947857372035
   7    1.9668157931666e-14
   8    -3.1179244830237e-13
   9       1.3531026996495
  10    1.5003379041937e-12
  11    2.2805085209177e-13
  12     -0.64927783303397
  13    4.7079913658639e-13
  14    -9.8380652069471e-14
  15    9.6916222841823e-14
  16    -0.021875775597148
  17    -4.5093811393528e-14
  18    -0.022551740962543
  19    -4.4293161158706e-13
  20    -3.2970096363273e-14
  21     -0.54923484136392
  22    -4.1553803524792e-14
  23      -0.2240668687823
  24    -9.7130223398795e-14
  25    -2.1785448889027e-13
  26    2.0676014622748e-12
  27    1.0745385395282e-12
  28    -5.7575551460031e-13
  29      0.48259906403779
  30    4.6526228640972e-13
  31    1.1832728121312e-12
  32      -1.9069411674071
  33    1.2672658257211e-12
  34    -2.9829963420191e-13
  35      0.51940793773107
  36    -4.0555489528687e-13
  37    1.0076611365535e-13
  38    -1.5903600647412e-15
  39      -0.3903866534164
  40    -4.8902539863276e-14
  41       0.5956490900353
  42    4.5231253983691e-13
  43    8.1601970965099e-13
  44     -0.17767826124147
  45    -6.5579709048732e-14
  46     -0.42776565537755
  47    3.4912045077574e-13
  48    5.4262401012159e-13
  49    -9.8815473916661e-13
  50    1.6358935341477e-14
  51    -0.011900894887806
  52    1.0390750932678e-13
  53    1.2650260213398e-13
  54      0.77407067583546
  55    4.4223938886665e-13
 Sym= A
 Ene=              16
 Spin= Alpha
 Occup=    0.00000
   1    -0.0066745869592396
   2    -0.0027176325500669
   3       0.1302987937081
   4       3.0645239740123
   5    -0.069779537338672
   6    0.0007101891579381
   7     0.056222806228927
   8     -0.23689286935669
   9     0.028663704328374
  10     -0.14049072662644
  11       1.3329339764677
  12      0.29738842141683
  13      -1.4884507698209
  14    -0.020101005947812
  15    0.0065109947425847
  16      0.11394534662897
  17    -0.017423058332422
  18    -0.032273995745379
  19     0.060898189389083
  20    -0.020276394080007
  21    -0.050003557373286
  22    -0.046764526062985
  23     -0.14097889243121
  24     0.018309948345949
  25     0.027832745584907
  26     -0.56605005935744
  27      -5.6890499439558
  28     0.042282959014179
  29    -0.021250413874798
  30    -0.023392352434158
  31        -0.24371825561
  32     -0.14399226079537
  33      -0.1469368708379
  34      -2.5526838966852
  35     -0.39860004013173
  36     0.072966155047115
  37    -0.0029441939544728
  38    -0.0077881930432111
  39    0.0056373783350918
  40      0.00459999835934
  41      0.12763248613324
  42    -0.027070251212718
  43    -0.039009011109258
  44    -0.026751810817041
  45    -0.095287304898279
  46     -0.25922610585638
  47     0.080476703720028
  48       1.4108716495801
  49        2.107860220368
  50    -0.0098047047455063
  51    0.0058593790306491