[Molden Format]
made by pyscf v[2.13.1]
[Atoms] (AU)
O   1   8     0.21099695469856     0.00000000000000     2.15462460678861
N   2   7    -0.44776862100326     0.00000000000000    -0.03589262653049
H   3   1     1.18163474748449     0.00000000000000    -1.17386889907833
[GTO]
1 0
 s    8 1.00
                 11720  0.00070964594651845
                  1759  0.0054672722921914
                 400.8   0.027823118610189
                 113.7    0.10474773971146
                 37.03    0.28292084635691
                 13.27    0.44849523869833
                 5.025    0.27081688521277
                 1.013    0.01545029160744
 s    8 1.00
                 11720  -0.00031444341168873
                  1759  -0.0024821376810179
                 400.8  -0.012316355381583
                 113.7  -0.050538917343672
                 37.03   -0.13938490331632
                 13.27   -0.32507749481778
                 5.025   -0.22984830758785
                 1.013     1.0953793467883
 s    1 1.00
                0.3023                   1
 s    1 1.00
               0.07896                   1
 p    3 1.00
                  17.7   0.062679166281506
                 3.854    0.33353656587936
                 1.046    0.74123964163973
 p    1 1.00
                0.2753                   1
 p    1 1.00
               0.06856                   1
 d    1 1.00
                 1.185                   1
 d    1 1.00
                 0.332                   1

2 0
 s    8 1.00
                  9046  0.00069961741342552
                  1357  0.0053860546299287
                 309.3   0.027391021189057
                 87.73    0.10315059198201
                 28.56    0.27857066331743
                 10.21    0.44829484945412
                 3.838    0.27808592839527
                0.7466   0.015431561233271
 s    8 1.00
                  9046  -0.00030499009595337
                  1357  -0.0024080263785077
                 309.3   -0.01194444872518
                 87.73  -0.048925992909017
                 28.56   -0.13447272472496
                 10.21   -0.31511257770011
                 3.838   -0.24285783254964
                0.7466     1.0943822068542
 s    1 1.00
                0.2248                   1
 s    1 1.00
               0.06124                   1
 p    3 1.00
                 13.55   0.058905676772132
                 2.917    0.32046110671427
                0.7973    0.75304206179207
 p    1 1.00
                0.2185                   1
 p    1 1.00
               0.05611                   1
 d    1 1.00
                 0.817                   1
 d    1 1.00
                  0.23                   1

3 0
 s    3 1.00
                 13.01   0.033498726389998
                 1.962    0.23480080117413
                0.4446     0.8136829578829
 s    1 1.00
                 0.122                   1
 s    1 1.00
               0.02974                   1
 p    1 1.00
                 0.727                   1
 p    1 1.00
                 0.141                   1

[5d]
[7f]
[9g]

[MO]
 Sym= A
 Ene=               0
 Spin= Alpha
 Occup=    1.00000
   1    0.0013433849079165
   2      0.10102406894891
   3      0.18139726490275
   4     0.062252410002615
   5      0.28429913092328
   6    -2.5770680682955e-13
   7      0.28031981646924
   8      0.16234428423739
   9    -1.8417334881234e-13
  10      0.14766999401053
  11    -0.011659289547646
  12    -1.8019278245758e-14
  13    -0.00032075249460968
  14    -0.0091180660005944
  15    -0.019953859575398
  16    1.4957372780639e-14
  17    -0.0035362797365194
  18    3.9721365123184e-15
  19    -0.0043339008526149
  20     -0.02061412807549
  21    2.1848650826603e-14
  22    -0.0013549451148082
  23    5.0176277158456e-15
  24    -0.005584156086856
  25     -0.10412095932187
  26    -0.095298720955896
  27    -0.033652773634241
  28      0.26983693078864
  29    -2.045898278313e-13
  30     -0.31760116848577
  31      0.12190492811535
  32    -1.2158472107896e-13
  33     -0.10120747687686
  34     0.015713126730928
  35    -9.2616581991583e-15
  36    -0.0091364846230034
  37    -0.029143247546238
  38    -0.015306100109269
  39    -2.095249984747e-14
  40     0.015658814713213
  41    -1.0885361703387e-14
  42     0.007126590809303
  43    -0.0098955238785604
  44    1.2553735150793e-15
  45    -0.0054125769379585
  46    -7.2506036054326e-15
  47      0.27670303658478
  48     0.071042793769282
  49    0.0034792699841544
  50    -0.020586216546857
  51    -5.5157798793819e-15
  52      0.01373313083133
  53    0.0017861630709553
  54    1.5004029934273e-15
  55    0.0060453499490438
 Sym= A
 Ene=               1
 Spin= Alpha
 Occup=    1.00000
   1    -0.00093633247316447
   2     0.013191660718598
   3    0.0086273376561545
   4    -0.017500233489778
   5      0.53281985244231
   6    -1.1798996142945e-14
   7    -0.034273947394766
   8      0.41364652075379
   9    -8.3578617469954e-15
  10    -0.033591918820585
  11     0.085799931799529
  12    -5.5212736150694e-17
  13    -0.0096147290534274
  14    -0.0045118020755083
  15    -0.0035255471851826
  16    7.576765935284e-16
  17    -0.00077639946501054
  18    2.1146341589206e-16
  19    -0.00094616822805153
  20    -0.014404907180445
  21    8.1772198420469e-16
  22    -0.004158707609561
  23    6.9479703223818e-17
  24    0.0012328911552278
  25      0.10530586387946
  26       0.2683145031282
  27      0.12598277706435
  28     -0.36909819453441
  29    -9.3239286335714e-15
  30    -0.081889674788777
  31     -0.26991512383737
  32    -5.6385214221658e-15
  33    -0.018552235493906
  34    -0.049781429092772
  35    -1.5019215543145e-15
  36    -0.0048823224728135
  37     -0.01389906253851
  38     0.021995573345267
  39    -9.9944882741779e-16
  40    -0.0088521652186812
  41    -4.0662657034164e-16
  42     0.013631600715259
  43    -0.00072541826758337
  44    -1.621059726397e-16
  45    -0.0082141651672045
  46    -5.5509089151673e-16
  47     -0.23993352062037
  48     -0.13187167213339
  49    -0.023596730431598
  50    0.0089331634287958
  51    -2.110794187351e-16
  52    -0.013635959387841
  53    -0.0075023489127109
  54    1.7123429468736e-16
  55     0.020324384993185
 Sym= A
 Ene=               2
 Spin= Alpha
 Occup=    1.00000
   1    -1.234650073337e-14
   2    1.5223840191522e-13
   3    2.7954211282285e-13
   4    2.7045385059916e-14
   5    6.2388371373586e-13
   6      0.46121976843488
   7    -1.7797499841767e-13
   8    3.6938279554703e-13
   9      0.32974340462069
  10    -1.8103973597375e-13
  11    1.9178875498399e-14
  12     0.030802567338183
  13    -1.9370642228895e-14
  14    1.2298308835226e-15
  15    -2.6858914566245e-14
  16    -0.026824120160976
  17    -4.9368941539153e-15
  18    -0.0071124454579522
  19    9.1268399235119e-15
  20    -2.1656068991742e-14
  21    -0.038877470563028
  22    -2.1324124787629e-15
  23    -0.0090210235614492
  24    1.2470157476543e-14
  25    -8.8326943762398e-13
  26    -9.9482373946875e-13
  27    -5.8323561478359e-14
  28    4.9223284043982e-13
  29      0.36554341648903
  30    3.850563223582e-13
  31    2.984400639119e-13
  32      0.21781160050653
  33    1.5240355282971e-13
  34    2.4048298264539e-14
  35     0.017054177082774
  36    4.4658557642751e-15
  37    -9.4718044981162e-15
  38    5.5023707535575e-14
  39     0.037460083469865
  40    1.5178095175116e-14
  41     0.019463655437898
  42    -1.7070339619833e-14
  43    -3.374809751502e-14
  44    -0.0022756620392066
  45    2.4469658468458e-14
  46     0.013052508618961
  47    -2.8521966046018e-13
  48    -2.526741132872e-14
  49    -6.5215051976272e-15
  50    4.6667757094721e-14
  51    0.0098714669262827
  52    -1.4385058556038e-14
  53    -6.1542163506746e-15
  54    -0.0027623694064091
  55    4.7148840852848e-15
 Sym= A
 Ene=               3
 Spin= Alpha
 Occup=    1.00000
   1    0.0043095058803237
   2      0.11073427509997
   3       0.1407880656139
   4     0.026380797177032
   5     -0.26929684576785
   6    8.679074549849e-13
   7      0.32247197880732
   8      -0.1700027238784
   9    6.2067224883423e-13
  10       0.2070165509455
  11    -0.014230915859877
  12    5.8610178207645e-14
  13     0.012034699404276
  14    -0.012220426699137
  15    0.0076073398360798
  16    -5.0433195955429e-14
  17    0.0028524802096321
  18    -1.3420256764728e-14
  19    -0.013705767251241
  20    0.0073377284165187
  21    -7.3516702969806e-14
  22     0.001315111718703
  23    -1.6907090107687e-14
  24    -0.0059636438943894
  25      0.23625723142885
  26      0.30305702852623
  27     0.012546469327716
  28     -0.26241338270217
  29    6.8754083796217e-13
  30     -0.23741419877495
  31     -0.14193701199235
  32    4.0930616140562e-13
  33      -0.1076424477543
  34    -0.0095005735857031
  35    3.1401803330856e-14
  36    -0.0039347720247945
  37    0.00079006296519558
  38    -0.030733334684809
  39    7.0487832515094e-14
  40    -0.010081529335532
  41    3.6628788011029e-14
  42    0.0025140395241251
  43    0.0070297881428484
  44    -4.519451699259e-15
  45    -0.0087039283031109
  46    2.4353628262405e-14
  47     0.081831588873422
  48     0.030855158316559
  49    0.0039795121328194
  50    -0.013861199343128
  51    1.8604808608369e-14
  52    0.00029541482460435
  53    -0.0028807154338469
  54    -5.0521739488658e-15
  55    0.0030077945587731
 Sym= A
 Ene=               4
 Spin= Alpha
 Occup=    1.00000
   1    -0.0080937139757877
   2      0.34264490948053
   3      0.48354354029788
   4     0.075682070948914
   5    -0.036336973329653
   6    -5.1105837792732e-13
   7      0.18879093250231
   8    -0.038738023905173
   9    -3.6375139285652e-13
  10     0.069666573553849
  11    -0.0035551409890734
  12    -3.4205450751296e-14
  13    -0.0034495351554073
  14    -0.0099333884638897
  15    2.4197705618516e-05
  16    2.9838961762896e-14
  17    0.0019848677944527
  18    7.9481002451912e-15
  19    -0.0062625051521894
  20    0.0046779636858835
  21    4.2191824007066e-14
  22    0.0015072063763935
  23    9.6904453115953e-15
  24    -0.022032620701596
  25      -0.2855231764588
  26     -0.33421014884927
  27    -0.051302066171334
  28    -0.089399486966878
  29    -4.0494321779438e-13
  30      0.14759607106587
  31    -0.020596347660982
  32    -2.4279380802865e-13
  33    -0.0046787533464801
  34    -0.0045955420211756
  35    -1.8575830542695e-14
  36    -0.0078391566597816
  37     0.012394141888114
  38     0.010185410646226
  39    -4.1501682716393e-14
  40    -0.0093184005142043
  41    -2.1608066695117e-14
  42    -0.019945590529482
  43    -0.016357663903096
  44    1.4662035921078e-15
  45    0.0078037854678935
  46    -1.4827459171438e-14
  47     -0.22856951478334
  48    -0.011599588814832
  49    0.0031109211826233
  50     0.025442202052605
  51    -1.0858317467612e-14
  52    -0.015454100845032
  53    -0.0057790494947531
  54    2.9950542635864e-15
  55    0.0027324040219418
 Sym= A
 Ene=               5
 Spin= Alpha
 Occup=    1.00000
   1      0.01986895680176
   2      0.30476807482179
   3      0.32289307157138
   4     0.015504460117236
   5     0.059149007725314
   6    1.1669068395763e-13
   7     -0.25190744251073
   8     0.041153843221987
   9    8.2371239455413e-14
  10     -0.15871631037349
  11    0.0056812169818086
  12    7.8086089263031e-15
  13    0.00042502340515268
  14     0.021685610836624
  15    0.0051985548542652
  16    -6.7982988441071e-15
  17    -0.00073556773133814
  18    -1.8147913491446e-15
  19     0.021627028972808
  20     0.002124537226001
  21    -9.4701541316685e-15
  22    0.0011829279444899
  23    -2.0981840229771e-15
  24    -0.010369317692714
  25      0.26383731243465
  26     0.069958981814831
  27    -0.0039068075494697
  28      0.17228122074429
  29    9.2475534912159e-14
  30      0.18096530995648
  31     0.040739940954485
  32    5.5936395022366e-14
  33    0.0035078675055268
  34    0.0059005976190455
  35    4.3463949400553e-15
  36    -0.0061283768531163
  37     0.021332367639736
  38     0.024501902660335
  39    9.5073805565663e-15
  40    0.0075231871305193
  41    4.8614268037729e-15
  42    -0.010487363682725
  43    -0.0002398158727539
  44    3.0152047081694e-17
  45    -0.0073235872464389
  46    3.6367581787886e-15
  47      0.11009063572248
  48     -0.03041625072284
  49    -0.0023830913395824
  50     -0.01548888069565
  51    2.5034419716705e-15
  52      0.01520348406878
  53     0.013695242743438
  54    -9.425513032978e-16
  55    -0.011135630563846
 Sym= A
 Ene=               6
 Spin= Alpha
 Occup=    1.00000
   1      0.12328096368364
   2    0.0093257771647439
   3    0.0071838362716146
   4    -0.00057649984796619
   5    -0.0021744000329135
   6    -1.2158327908792e-14
   7    0.0044163167460919
   8    -0.00058328937101521
   9    -1.1387134531541e-14
  10    0.0053027250284026
  11    -1.6158534147912e-05
  12    -2.7974204258075e-15
  13    0.00048290168723875
  14    -0.0004382728517302
  15    -2.6832752491322e-05
  16    -4.8967982782793e-17
  17    4.9569112100387e-05
  18    -6.2919684949595e-17
  19     -0.00147288713923
  20    -0.00062858036198964
  21    3.9430914044211e-15
  22    -0.0001544930758436
  23    9.3538837923838e-16
  24      0.99385596685258
  25    -0.0010224770384208
  26    -0.0085571412216249
  27    -0.0020739145297163
  28    -0.00070062792790731
  29    -9.601073706246e-15
  30    0.0037147229437456
  31    -0.0030360275058189
  32    -2.2015935109966e-15
  33    0.0021941216014861
  34    -0.00075905347867372
  35    1.0948147268591e-15
  36    0.00054223061034602
  37    0.00089707536021257
  38    0.00018104550848226
  39    -8.354356478262e-16
  40    0.00032191405857042
  41    -4.6649259054461e-16
  42    -0.00036215883643977
  43    3.5098798629749e-05
  44    2.4450576157706e-15
  45    -0.00020750148124046
  46    7.5729205990315e-16
  47    -0.0037403673156219
  48    0.0059497111132309
  49    0.00065119029302788
  50    0.00090763746242774
  51    -3.7850716305664e-16
  52    -0.00062665678961856
  53    -0.002116494749698
  54    -3.1726183192734e-16
  55    0.0016029800225274
 Sym= A
 Ene=               7
 Spin= Alpha
 Occup=    1.00000
   1      0.99427925192389
   2    -0.0052873788376021
   3    -0.024109171565773
   4    -0.0049928587908333
   5    -0.00044036256580393
   6    -2.2502974233388e-15
   7    0.0048613696205619
   8    0.0017584922776762
   9    -1.3923228220395e-15
  10     0.011503438640374
  11    0.00021767604952765
  12    -2.3527118748028e-17
  13    0.00061907507333402
  14    -0.00032255225301247
  15    -0.00015042372068705
  16    2.3469165645094e-16
  17    0.00032178954730275
  18    4.1742672524679e-17
  19    -0.0022528705897568
  20    -0.00088109343576966
  21    -7.3080508729086e-17
  22    -0.0001391328439836
  23    -4.0413453218095e-17
  24     -0.12295857914675
  25    -0.011670576883279
  26     0.006023270483619
  27    0.0033129591401189
  28    -0.0039461703292715
  29    -1.8076303611583e-15
  30    -0.0032115604178147
  31    0.0022744839717874
  32    -1.4140987771895e-15
  33    0.0087708665504115
  34    1.228334858604e-05
  35    -2.4714078198608e-16
  36     0.001135526298171
  37    -0.00092135085222531
  38    -0.00072750115565448
  39    -2.1179812060681e-16
  40    -0.00027072022255331
  41    -1.0345843144625e-16
  42    0.0023646956011009
  43    0.0014072279013033
  44    -2.1397138493526e-16
  45    0.00064141837743748
  46    -1.6680300868307e-16
  47    -0.0051845393117566
  48    0.0014940328716491
  49    -0.00016456389088949
  50    0.00073784179724291
  51    -3.5850554170157e-17
  52    -0.00073150688972469
  53    -0.00083353063342756
  54    5.7187007739821e-17
  55    0.00029084297736889
 Sym= A
 Ene=               8
 Spin= Alpha
 Occup=    0.00000
   1    6.0946641861227e-15
   2    1.1107172100553e-14
   3    -2.9604142595218e-14
   4    -7.6365328264235e-13
   5    -2.2476502424973e-14
   6     -0.47643120698861
   7    -4.5797071944065e-14
   8    5.9524965144847e-15
   9     -0.37811200165554
  10    4.7666970090509e-14
  11    4.5507712041109e-14
  12    -0.090909593227309
  13    1.4916619498731e-13
  14    2.3780016389114e-15
  15    -4.222915043784e-15
  16    -0.0043461597563401
  17    7.6185050733778e-16
  18    0.00078351479302406
  19    -1.5817711638633e-14
  20    -1.366137837973e-14
  21     0.010659919786893
  22    3.6267647984515e-15
  23    0.0031629231527616
  24    -7.0788343408502e-15
  25    -2.0711899558097e-15
  26    1.9357438623142e-13
  27    1.0356862072885e-12
  28    2.8862039397312e-14
  29      0.56307324816541
  30    -8.3333839486116e-14
  31    5.9796353731248e-14
  32      0.47007378285882
  33    -1.8406590814636e-14
  34    2.1284653289653e-13
  35    -0.0097291380874315
  36    4.006923366283e-13
  37    -7.6946023403055e-15
  38    8.0747551682128e-16
  39    -0.016128007458424
  40    -2.8237599727737e-15
  41     0.014832137603767
  42    5.2387858894219e-15
  43    -5.885490003835e-15
  44    -0.003277186225917
  45    -1.4156332151496e-15
  46     0.019840093339958
  47    -3.160129631941e-14
  48    -2.7760798700837e-13
  49    -3.2497820854655e-13
  50    -2.826142876212e-15
  51     0.016090113128907
  52    3.4312449818716e-15
  53    5.6454367695009e-14
  54     0.012157513943966
  55    -8.0164539166926e-15
 Sym= A
 Ene=               9
 Spin= Alpha
 Occup=    0.00000
   1    1.7484970869131e-14
   2    2.8428770304577e-13
   3    1.0068603455581e-12
   4    6.3287864421581e-12
   5    -3.0952736459625e-14
   6      -0.2170173888557
   7    -2.2832078286568e-13
   8    7.9040500407537e-15
   9     -0.12174008965755
  10    -6.2554285659667e-13
  11    -9.1627543146323e-13
  12      0.30976575125251
  13    -1.1540485691161e-12
  14     6.14412492988e-15
  15    -8.1478833971786e-15
  16    0.0086173344678229
  17    -8.0804393329534e-15
  18    0.0079139361140841
  19    7.5102637653466e-14
  20    1.4475386123746e-14
  21    -0.010790913288991
  22    -1.8031452563993e-15
  23     0.012625168638552
  24    2.6212513124297e-14
  25    -1.1400685897226e-13
  26    -1.3452383293206e-12
  27    -8.9530921188291e-12
  28    -1.1905612413957e-13
  29      -0.1860436112259
  30    -1.2880343500067e-13
  31    -5.4232435412718e-13
  32     -0.16844425256317
  33    -6.4233239169669e-13
  34    -1.5650308222201e-12
  35      0.84283024893091
  36    -3.4910763799435e-12
  37    4.9450926046502e-14
  38    3.6239186976338e-14
  39    -0.0016915816326076
  40    7.2949990098151e-15
  41    -0.016556007292966
  42    -4.6155557532185e-14
  43    -2.9238382367125e-14
  44     0.036440631337482
  45    -7.1909348167761e-14
  46     0.038863843609935
  47    -1.5961406798169e-14
  48    1.6387506688215e-12
  49    2.4736916031217e-12
  50    -2.6605060849198e-14
  51    0.0094239945944854
  52    -1.808916527232e-14
  53    -2.1957475897838e-13
  54    -0.028983596224601
  55    1.9092268782618e-13
 Sym= A
 Ene=              10
 Spin= Alpha
 Occup=    0.00000
   1    0.0036989252833049
   2     0.073368929080763
   3      0.40984078504911
   4      0.84645120049563
   5     -0.19443716834561
   6    1.3790327155056e-12
   7     -0.16183659915986
   8    -0.057302846996188
   9    -7.3756035564576e-13
  10     -0.10274657481314
  11      0.26427453672695
  12    -3.8951858625137e-12
  13      0.13641877625421
  14     0.064853918701696
  15    0.0020035240257534
  16    -1.3434318290157e-14
  17     0.085682802169367
  18    -5.9787893745862e-14
  19     0.083467864644305
  20    -0.0059825321749407
  21    2.2115554524653e-13
  22        0.200569679147
  23    -2.3618741275965e-13
  24    0.0020156671285327
  25     0.084127890635152
  26      0.16023565921758
  27     -0.80005891755159
  28      0.28242629273921
  29    -1.0927338721627e-12
  30     -0.30322464317262
  31      0.06847442917369
  32    9.5711589801944e-13
  33     -0.55581185937517
  34     -0.44156114017484
  35    3.1958385495706e-12
  36     -0.38377619233811
  37    -0.0015396361111921
  38     0.030140232920873
  39    -1.6896258212861e-13
  40      0.02080605928549
  41    2.050638058938e-13
  42    -0.068526328118611
  43    -0.0030442129812612
  44    -7.6481096764021e-14
  45     0.069741564803662
  46    -4.205772225042e-13
  47     -0.29863734389288
  48     -0.38937159335769
  49     -0.30215373551889
  50    -0.033659718624201
  51    1.487100039838e-13
  52     0.011861686669105
  53    -0.038585331854999
  54    6.0491107357894e-13
  55     0.040312918487591
 Sym= A
 Ene=              11
 Spin= Alpha
 Occup=    0.00000
   1    1.789903128825e-13
   2    5.1515474193951e-13
   3    8.8138564720465e-13
   4    -8.0961225045775e-12
   5    -6.3008468877641e-13
   6     -0.24558221715699
   7    8.3063045774915e-13
   8    7.643424938283e-13
   9     0.017596058062837
  10    1.4379829563171e-12
  11    -7.9155827079875e-14
  12       1.6106002413448
  13    1.0134642101123e-12
  14    1.8411160559106e-13
  15    7.3912834756713e-14
  16     -0.03257026099437
  17    1.1251828299234e-13
  18     0.086322445536963
  19    1.8044784415794e-13
  20    5.4092596298879e-14
  21    -0.043348714249411
  22    3.0790308473583e-13
  23      0.14220528511212
  24    1.8435965113779e-13
  25    1.2974031952779e-12
  26    3.2942852750245e-12
  27    3.1086700664345e-12
  28    9.6513459651922e-13
  29      0.40950067570091
  30    -2.0370458863439e-13
  31    -2.6036774082675e-13
  32     -0.43562088519515
  33    -2.5462936457328e-13
  34    2.8118102703353e-12
  35      -1.3075776791336
  36    3.0416631278261e-12
  37    -1.712944887434e-13
  38    1.2354584282464e-14
  39    -0.0009161508467518
  40    -1.2437223993822e-13
  41    -0.035521700454235
  42    -5.3660895408467e-13
  43    -6.8720052968256e-14
  44    -0.0095970768820397
  45    5.1935164527297e-14
  46     0.060938443903553
  47    -1.0856979198633e-12
  48    -6.5731549367792e-13
  49    -1.6397258512577e-12
  50    -8.6051360156316e-14
  51     -0.03365258474595
  52    1.253715244876e-13
  53    -3.0630023431892e-13
  54    -0.0023623169215891
  55    5.7057929366331e-13
 Sym= A
 Ene=              12
 Spin= Alpha
 Occup=    0.00000
   1    -1.8551955561419e-13
   2    -5.0677590249426e-13
   3    1.4806334640279e-13
   4    -9.1688517438449e-13
   5    -1.5681066511147e-14
   6     -0.51969962957489
   7    -8.5035101788873e-13
   8    3.0542887693043e-13
   9      0.27555153733439
  10    3.0515071122204e-13
  11    -5.5264172944122e-13
  12     -0.13405900272984
  13    1.6687321712264e-12
  14    1.1454228823967e-13
  15    -6.7888851835551e-14
  16    -0.066165922103777
  17    2.1327378372573e-13
  18    -0.083766048127808
  19    -3.1696566721213e-14
  20    -2.4746616538025e-13
  21     -0.33894609090347
  22    1.2997288505625e-13
  23     0.036973225333264
  24    -8.0909072923457e-14
  25    -1.9223780500273e-13
  26    1.1903926345884e-12
  27    2.8618662445718e-12
  28    2.1433550372805e-13
  29     -0.47644652111825
  30    -3.6526991287372e-13
  31    6.7466549474893e-14
  32       0.1938975773814
  33    -9.6209905767634e-14
  34    1.5397054997638e-12
  35     -0.43914966507472
  36    -6.9644116542364e-15
  37    4.4164668463318e-14
  38    3.0153292412004e-14
  39      0.25013503085984
  40    1.1654913683057e-14
  41    -0.094946418334478
  42    1.3850664614534e-13
  43    -2.7316845029594e-13
  44      0.45023382197487
  45    1.5335666547864e-13
  46     0.028409873969995
  47    -4.3279773878773e-13
  48    -1.3039894524081e-12
  49    -8.6503720380495e-13
  50    -2.2436800299429e-14
  51    -0.031193474522442
  52    -1.7872459751069e-13
  53    4.2375738992185e-15
  54      0.53739471234788
  55    -4.9942860844935e-13
 Sym= A
 Ene=              13
 Spin= Alpha
 Occup=    0.00000
   1    9.660059566319e-14
   2    1.0822470190427e-12
   3    3.0718799912126e-12
   4    9.718456949144e-12
   5    -5.774606414161e-13
   6     -0.28555611008632
   7    -3.0696096753923e-12
   8    -1.0517505888707e-12
   9     0.012130206321028
  10    -3.7100485856972e-12
  11    1.3614770032803e-12
  12     -0.92306834369765
  13    -1.1349897169695e-12
  14    5.6871832131702e-13
  15    -1.2483807793198e-13
  16      0.33300634397672
  17    3.5405830784276e-13
  18      0.20040780219239
  19    5.5784623476681e-13
  20    -2.6650637017555e-13
  21      0.49629727829774
  22    6.263305289818e-13
  23      0.22056313309288
  24    -7.3809286521351e-13
  25    -2.9762681325622e-12
  26    -4.6441174771827e-12
  27    -5.6443596977658e-12
  28    -9.9891230666005e-13
  29      0.40670487540082
  30    -2.5782699851018e-12
  31    -4.6714531850625e-13
  32     0.013082263488603
  33    -3.1617820007331e-12
  34    -3.9625775160888e-12
  35      0.77678555147066
  36    -3.8456181536386e-12
  37    -3.2509398309775e-13
  38    1.3328916927198e-13
  39      0.33462907299345
  40    1.105199427954e-13
  41     -0.20404855120728
  42    3.1643309669608e-13
  43    -3.7707990364383e-13
  44      0.64490458682252
  45    -5.0500088827088e-13
  46     -0.23847244923163
  47    4.148495574136e-13
  48    -4.0495939618551e-13
  49    1.3132113172692e-12
  50    3.0331709729604e-14
  51    -0.054698731264333
  52    -1.754622257907e-13
  53    -2.132803440257e-13
  54     0.077475596065247
  55    -1.0718006545041e-12
 Sym= A
 Ene=              14
 Spin= Alpha
 Occup=    0.00000
   1    5.2281673081724e-13
   2    1.2981648362797e-12
   3    1.8268941378041e-12
   4    -1.0181721496247e-11
   5    2.5706743335556e-13
   6     0.024374985345452
   7    1.7167677803445e-12
   8    1.0719541065349e-13
   9     -0.20655018996157
  10    6.9365859190553e-14
  11    2.3026011648945e-13
  12      0.54534841840483
  13    4.0833293770324e-13
  14    7.2486951955776e-13
  15    7.3816986691492e-13
  16      0.12209131699042
  17    -4.3603348502649e-13
  18      0.24682706185614
  19    -5.7290921415702e-13
  20    -1.530381713702e-12
  21      0.18512539873135
  22    2.1868149415458e-13
  23    -0.008167992991563
  24    -2.3397523595066e-13
  25    1.5993317886432e-13
  26    1.0682149290131e-11
  27    1.3964442397789e-11
  28    1.3805071374257e-12
  29     -0.61478266047521
  30    7.8265819513264e-13
  31    3.1373588439346e-12
  32       1.5075153080086
  33    -4.162859196199e-12
  34    4.4575945257294e-12
  35     -0.49240770302483
  36    1.8221940569411e-12
  37    1.2075536495698e-13
  38    -2.0982331062799e-12
  39      0.34218731808349
  40    6.6111031605815e-13
  41     -0.49639491519532
  42    -1.8495111846627e-12
  43    -4.1261807579955e-13
  44     -0.58589627739826
  45    -1.1234484094626e-12
  46      0.34114869666488
  47    -1.7526860817458e-12
  48    -1.5794786973305e-11
  49    -1.1487369271819e-12
  50    1.6316520639938e-12
  51     0.063510122900429
  52    -2.594851711271e-12
  53    3.4783684095974e-12
  54      -1.0163987760414
  55    -1.5464558759105e-12
 Sym= A
 Ene=              15
 Spin= Alpha
 Occup=    0.00000
   1    -1.1916634198667e-12
   2    -2.8134207283179e-12
   3    9.5329913651994e-12
   4    1.4169256432426e-11
   5    -9.7730367186131e-14
   6     -0.68377894978907
   7    2.1622315819504e-12
   8    2.4286726641331e-12
   9       2.1408779740494
  10    -8.0072853545985e-12
  11    -7.4669353879938e-13
  12     -0.42849452116796
  13    -1.8613503338014e-12
  14    -3.4677495574014e-13
  15    1.2377162055733e-12
  16      0.26798335161979
  17    1.0088205972217e-12
  18      0.44005320042321
  19    2.1938169202842e-12
  20    -1.1411906175236e-12
  21     -0.69009585314576
  22    -1.7793751144989e-12
  23     -0.50253774480572
  24    -6.1349775154832e-13
  25    -8.8879197163863e-13
  26    -2.8022723273004e-12
  27    -7.59604409632e-12
  28    6.9256141864408e-15
  29    -0.093221533323654
  30    7.3455861095361e-13
  31    -4.223394861126e-12
  32      -1.0588254482588
  33    -7.7420177016173e-12
  34    -1.2164692140202e-12
  35      0.27051180703901
  36    -3.2931956322998e-12
  37    -1.4072155506897e-12
  38    5.5890616794936e-13
  39     -0.15930260492118
  40    -5.8047889203762e-13
  41      0.31767528912377
  42    -1.7039006444844e-13
  43    -4.841009814495e-12
  44      -1.1745139697566
  45    -1.00409583168e-12
  46     -0.13606321893255
  47    1.031600961127e-12
  48    -8.4227473651999e-12
  49    -1.4427680273687e-12
  50    1.7699369296845e-13
  51     0.084894755508171
  52    2.3094174021337e-12
  53    4.1712059691344e-12
  54     -0.21873938957866
  55    -1.1814568418672e-12
 Sym= A
 Ene=              16
 Spin= Alpha
 Occup=    0.00000
   1    -0.014036546981121
   2    -0.018454452839942
   3      0.24529963500532
   4       2.2804136169428
   5    -0.056822128888467
   6    -0.00058418504688038
   7      0.12523589824304
   8     -0.27678817176284
   9     0.015908480461222
  10     -0.14264726228915
  11       1.0371823681389
  12     -0.27275198254417
  13      -1.5410122487867
  14    -0.024977391840843
  15     0.010972830816027
  16     -0.11698481415936
  17     -0.01857037646087
  18     0.031829213870415
  19     0.072738960664376
  20    -0.0068779919206001
  21     0.031974271356461
  22    -0.046840652662627
  23      0.13139871374676
  24     0.003892161560611
  25     0.048152183342144
  26     -0.16200110081338
  27      -2.9611072198861
  28    -0.084611054888577
  29     0.020883762333446
  30     0.011906828059828
  31     -0.19955698734227
  32     0.099448507119146
  33     -0.33618659344735
  34     -0.68735193879048
  35      0.37477190615068
  36     0.082245529898776
  37    -0.0047084528939749
  38    -0.019383394220078
  39     0.011305787529475
  40    -0.011610961048141
  41     -0.12636836420859
  42    -0.078206050359906
  43    -0.093620552835037
  44    -0.036328489628079
  45    -0.0088926604831919
  46      0.24795602625008
  47     0.079325382467172
  48     -0.12746247489167
  49      0.35681326172875