[Molden Format]
made by pyscf v[2.13.1]
[Atoms] (AU)
O   1   8     0.21099695469856     0.00000000000000     2.15462460678861
N   2   7    -0.44776862100326     0.00000000000000    -0.03589262653049
H   3   1     1.18163474748449     0.00000000000000    -1.17386889907833
[GTO]
1 0
 s    8 1.00
                 11720  0.00070964594651845
                  1759  0.0054672722921914
                 400.8   0.027823118610189
                 113.7    0.10474773971146
                 37.03    0.28292084635691
                 13.27    0.44849523869833
                 5.025    0.27081688521277
                 1.013    0.01545029160744
 s    8 1.00
                 11720  -0.00031444341168873
                  1759  -0.0024821376810179
                 400.8  -0.012316355381583
                 113.7  -0.050538917343672
                 37.03   -0.13938490331632
                 13.27   -0.32507749481778
                 5.025   -0.22984830758785
                 1.013     1.0953793467883
 s    1 1.00
                0.3023                   1
 s    1 1.00
               0.07896                   1
 p    3 1.00
                  17.7   0.062679166281506
                 3.854    0.33353656587936
                 1.046    0.74123964163973
 p    1 1.00
                0.2753                   1
 p    1 1.00
               0.06856                   1
 d    1 1.00
                 1.185                   1
 d    1 1.00
                 0.332                   1

2 0
 s    8 1.00
                  9046  0.00069961741342552
                  1357  0.0053860546299287
                 309.3   0.027391021189057
                 87.73    0.10315059198201
                 28.56    0.27857066331743
                 10.21    0.44829484945412
                 3.838    0.27808592839527
                0.7466   0.015431561233271
 s    8 1.00
                  9046  -0.00030499009595337
                  1357  -0.0024080263785077
                 309.3   -0.01194444872518
                 87.73  -0.048925992909017
                 28.56   -0.13447272472496
                 10.21   -0.31511257770011
                 3.838   -0.24285783254964
                0.7466     1.0943822068542
 s    1 1.00
                0.2248                   1
 s    1 1.00
               0.06124                   1
 p    3 1.00
                 13.55   0.058905676772132
                 2.917    0.32046110671427
                0.7973    0.75304206179207
 p    1 1.00
                0.2185                   1
 p    1 1.00
               0.05611                   1
 d    1 1.00
                 0.817                   1
 d    1 1.00
                  0.23                   1

3 0
 s    3 1.00
                 13.01   0.033498726389998
                 1.962    0.23480080117413
                0.4446     0.8136829578829
 s    1 1.00
                 0.122                   1
 s    1 1.00
               0.02974                   1
 p    1 1.00
                 0.727                   1
 p    1 1.00
                 0.141                   1

[5d]
[7f]
[9g]

[MO]
 Sym= A
 Ene=               0
 Spin= Alpha
 Occup=    1.00000
   1    -0.00090537024111709
   2    -0.0064168220036705
   3    -0.024495185472802
   4    -0.027537743902685
   5      0.47844014845566
   6    -7.885769807248e-16
   7    -0.075007185910878
   8      0.38113309037963
   9    -5.0130353587104e-16
  10    -0.054137983394877
  11      0.08641572591564
  12    8.0480802536382e-16
  13    -0.009313123055137
  14    -0.0031949929916757
  15    -0.00028571974177808
  16    1.2083895962503e-16
  17    -0.00018940658768936
  18    4.0884822208356e-17
  19    -0.00047182168473622
  20    -0.010936274968102
  21    -1.272111940959e-16
  22    -0.0038977712487518
  23    -1.3862641839483e-16
  24    0.0023873187305868
  25      0.12277478981605
  26      0.28454660092992
  27      0.13020657298226
  28     -0.41003966017431
  29    -5.471855180414e-16
  30    -0.034863898965647
  31     -0.28719439759783
  32    -4.5677374292332e-16
  33    -0.0032238161158209
  34    -0.051730646758094
  35    -1.1320044292849e-15
  36    -0.0033115301251324
  37    -0.0093255051794292
  38      0.02363271857438
  39    -1.014885354831e-16
  40     -0.01129687779974
  41    5.9182595146691e-17
  42     0.012560070666002
  43    0.0010298783974067
  44    -2.0964065176018e-16
  45    -0.0073341291751341
  46    -2.4885156133196e-16
  47     -0.27916156200208
  48     -0.14089216643216
  49    -0.023817918289524
  50     0.011886643000035
  51    2.3714770365194e-17
  52    -0.015631503157838
  53    -0.0077679758393462
  54    1.1417918501852e-16
  55     0.019190548249601
 Sym= A
 Ene=               1
 Spin= Alpha
 Occup=    1.00000
   1    0.00052728447407532
   2    -0.060746673800764
   3    -0.087582703382813
   4    -0.015589528751689
   5     -0.42196258123108
   6    -4.0309840168613e-14
   7      0.18866758927909
   8     -0.26498969595051
   9    -2.8523120814125e-14
  10       0.1399478816095
  11     -0.01490536703388
  12    -1.8317304492849e-15
  13     0.010965276104842
  14    -0.010520363093413
  15     0.014941236138694
  16    2.3848505678074e-15
  17    0.0042417962910592
  18    5.9033336802363e-16
  19     -0.01458981321331
  20     0.016588348418332
  21    3.0092640015526e-15
  22    0.0017109801013601
  23    8.3730341926183e-16
  24     0.002994491897127
  25      0.17951558291766
  26      0.27088184549016
  27     0.019488264774302
  28     -0.35734461930837
  29    -3.205333210524e-14
  30    -0.088924141339687
  31     -0.16251902683642
  32    -1.9694718119216e-14
  33    -0.037803313005475
  34    -0.012471739664618
  35    -2.1181789598274e-15
  36    0.0037673373712133
  37    0.0097293058391153
  38    -0.026874109323378
  39    -3.2706147726177e-15
  40    -0.016727576598873
  41    -1.6826412225225e-15
  42    0.0012782013864119
  43     0.011637146439575
  44    -7.3376351499604e-17
  45    -0.0021968673098133
  46    -1.3828285088568e-15
  47    -0.065030551705406
  48     0.011027182951305
  49    0.0041289439499311
  50    0.00077203837611889
  51    -8.4855150665055e-16
  52    -0.0085933580067412
  53    -0.0059920927285281
  54    4.4268932240918e-16
  55    0.00058600990641812
 Sym= A
 Ene=               2
 Spin= Alpha
 Occup=    1.00000
   1    6.1170262928181e-16
   2    -2.0963882133711e-14
   3    -6.0088130848999e-14
   4    -7.0401346673321e-14
   5    -2.1325201480453e-13
   6      0.46121976843488
   7    -2.7075845493307e-13
   8    -1.3471960475638e-13
   9      0.32974340462069
  10    -1.5568820270935e-13
  11    4.9896129775619e-15
  12     0.030802567338183
  13    2.9332263727504e-15
  14    7.8274765933666e-15
  15    1.3639339594071e-14
  16    -0.026824120160976
  17    2.7305921582325e-15
  18    -0.0071124454579522
  19    3.6520753156293e-15
  20    1.7046804529589e-14
  21    -0.038877470563028
  22    1.4485697815907e-15
  23    -0.0090210235614492
  24    3.1802268091041e-15
  25    -1.468371166509e-13
  26    -1.9672194415021e-13
  27    2.4831450250704e-14
  28    -1.1798154343378e-13
  29      0.36554341648903
  30    4.1355598394032e-13
  31    -1.7497026200842e-14
  32      0.21781160050653
  33    1.4081132086371e-13
  34    1.5922196103447e-16
  35     0.017054177082775
  36    1.6687037698207e-14
  37    2.9216730930151e-14
  38    2.4600676154282e-14
  39     0.037460083469865
  40    -1.1968850303022e-14
  41     0.019463655437898
  42    -1.2667308219222e-14
  43    2.4612837785793e-15
  44    -0.0022756620392066
  45    1.330170211015e-14
  46     0.013052508618961
  47    -3.2487943229804e-13
  48    -5.5739760387198e-14
  49    -4.6299068699177e-15
  50    3.1926057726839e-14
  51    0.0098714669262827
  52    -1.6836920556636e-14
  53    -4.9440519341551e-15
  54    -0.0027623694064091
  55    -6.4315974004385e-15
 Sym= A
 Ene=               3
 Spin= Alpha
 Occup=    1.00000
   1    0.0015041640041993
   2       0.1290873162375
   3      0.18464833750271
   4     0.017039015909155
   5     -0.13867069003001
   6    -4.0079409957054e-13
   7    -0.057688299953327
   8     -0.09738002211625
   9    -2.8524997575006e-13
  10    -0.059853361431298
  11    0.00039666965653653
  12    -2.6699987259193e-14
  13    -0.0056675148198949
  14    -0.0022464769879792
  15    0.0073145617818175
  16    2.3388356603352e-14
  17    0.0026345270423012
  18    6.2418025343507e-15
  19    -0.0016874411586213
  20     0.012644972959986
  21    3.3140735999705e-14
  22    0.0015706127830451
  23    7.5845173398402e-15
  24    0.0026311396481259
  25     -0.29317187084859
  26     -0.33806694624624
  27    -0.035336343225142
  28     -0.12454570995186
  29    -3.1729521161704e-13
  30      0.33103194877568
  31    -0.019769228039921
  32    -1.903568104855e-13
  33      0.08372756547064
  34    -0.0058323090395862
  35    -1.4392351081173e-14
  36    0.0012426121990694
  37       0.0220321780679
  38     0.019995266833167
  39    -3.2534983627636e-14
  40    -0.012618662750026
  41    -1.6937602352473e-14
  42    -0.019282893809237
  43    -0.0097200129831042
  44    1.1955066382099e-15
  45     0.013403028518164
  46    -1.1602334337831e-14
  47     -0.34546933253404
  48    -0.040511242618386
  49    0.0015237129588939
  50     0.036570226085191
  51    -8.5311096880735e-15
  52    -0.020570011516137
  53    -0.0061441221512616
  54    2.3510886166574e-15
  55    -0.001684140430323
 Sym= A
 Ene=               4
 Spin= Alpha
 Occup=    1.00000
   1    0.0027568850425647
   2      0.28270190643182
   3      0.43028796051619
   4     0.093975532164084
   5      0.10793773312916
   6    2.3181429144408e-13
   7      0.45953713211454
   8     0.055060214527211
   9    1.6695376887486e-13
  10      0.24104167571483
  11    -0.0072622126693212
  12    1.5235371959462e-14
  13    0.0015849105489051
  14    -0.020155169813323
  15    -0.011221080456025
  16    -1.3406885055311e-14
  17    -7.717650550927e-07
  18    -3.5463020685632e-15
  19     -0.01499451063215
  20    -0.0097912753725964
  21    -2.0192618499784e-14
  22    -5.4574845422973e-05
  23    -4.7426623963095e-15
  24    -0.016898433816425
  25     -0.16409292488193
  26     -0.11899006647709
  27    -0.034076631031093
  28    -0.040886424213556
  29    1.8342721894622e-13
  30     -0.25223693080758
  31    -0.022787422714022
  32    1.0835447381778e-13
  33     -0.11703582342397
  34    -0.0021755747099471
  35    8.5434208020956e-15
  36    -0.012193401105941
  37     -0.01582555079916
  38     -0.01736028730362
  39    1.8807882389727e-14
  40    -0.001087443728407
  41    9.7698125369763e-15
  42    -0.0033914796333513
  43    -0.013560428131503
  44    -1.9766316208416e-15
  45    -0.0025193025393385
  46    6.2228175547921e-15
  47     0.043024358351449
  48     0.042824842210917
  49    0.0035820584708098
  50    -0.0014163110100277
  51    5.0246997950607e-15
  52    -0.0032303150405637
  53    -0.0059061550582202
  54    -1.3570486582442e-15
  55     0.010436570393734
 Sym= A
 Ene=               5
 Spin= Alpha
 Occup=    1.00000
   1    -0.011761135049196
   2      0.36429362377937
   3      0.40462454512697
   4     0.026861090605998
   5    -0.065029193609027
   6    -1.6764602628461e-14
   7     -0.16467818640153
   8    -0.039447028646986
   9    -1.2667517654357e-14
  10     -0.10820376144015
  11    0.0014828580511412
  12    -8.8504777003109e-16
  13    0.0027675491222466
  14     0.017014550387913
  15    0.0096284426693411
  16    9.8990585080986e-16
  17    0.00087524386073956
  18    2.4582584283861e-16
  19     0.016615754297284
  20    0.0078718719506324
  21    1.5213627953519e-15
  22    0.0019839423270115
  23    4.7338732239822e-16
  24    -0.0019985552933114
  25      0.26237724649848
  26     0.081550504225969
  27    -0.0080822428169892
  28     0.050816468768614
  29    -1.3302577531919e-14
  30      0.19016934067136
  31    -0.011979606670932
  32    -7.5217988357715e-15
  33    -0.0082775607999644
  34    0.0010308073398728
  35    -6.9181447255427e-16
  36    -0.0068308658514392
  37     0.027125844646081
  38     0.019628590178707
  39    -1.3270341261369e-15
  40    0.00082075293249333
  41    -7.734853875088e-16
  42    -0.014460667510529
  43    -0.00032663552309481
  44    4.2803218503422e-16
  45    -0.0065343439111635
  46    -2.6826398748298e-16
  47     0.043271998140065
  48    -0.031515681872051
  49    -0.00078394125344252
  50    -0.010140193892443
  51    -3.3317715813531e-16
  52    0.0096750570140419
  53     0.010976327949419
  54    -1.0755487248881e-16
  55    -0.010465638619972
 Sym= A
 Ene=               6
 Spin= Alpha
 Occup=    1.00000
   1    -0.032117152789235
   2     0.003256235923051
   3    0.0026994183141182
   4    -0.00043857532391375
   5    0.00095690725532342
   6    3.787272924382e-15
   7    0.0059880376111714
   8     0.001175019982527
   9    2.6162437998846e-18
  10    0.0053363148983084
  11    -6.0372925407637e-05
  12    -1.7334672643267e-15
  13    0.00040370189198122
  14    -0.00055495591156723
  15    -0.00023680596644242
  16    -9.847778757853e-16
  17    -5.1891270322838e-05
  18    -3.0753699994043e-16
  19    -0.0012797743623877
  20    -0.00076538859924189
  21    2.6128782918794e-15
  22    -0.00017991354565388
  23    6.2974686518856e-16
  24       1.0010861468942
  25    0.00094696205746885
  26    -0.0063696536919095
  27    -0.0020038453015963
  28    0.0013458330415844
  29    3.036016341443e-15
  30    -0.0023759296696525
  31    -0.0026906820899485
  32    5.3514341804642e-15
  33    -1.9147552181788e-05
  34    -0.00066818217715597
  35    1.6877762498663e-15
  36    0.00044252752535666
  37    0.00037869943039565
  38    -0.00018950194381261
  39    4.6167167149718e-16
  40    0.00053430928753241
  41    2.0836420795667e-16
  42    -0.0002784477643384
  43    -5.5613804697944e-05
  44    2.3793672866558e-15
  45    -0.00038382443779946
  46    1.2125900480906e-15
  47    0.0010649647171763
  48    0.0065653914488096
  49    0.00065447300244023
  50    0.00044551001753972
  51    -3.8756154027018e-17
  52    -0.00035611560312052
  53    -0.002018546237584
  54    -4.117128248581e-16
  55    0.0016910622812339
 Sym= A
 Ene=               7
 Spin= Alpha
 Occup=    1.00000
   1       1.0015438918271
   2    0.0032120904200009
   3    -0.016310666723929
   4    -0.0051178441912767
   5    -0.00068044718064928
   6    -1.0509498017947e-17
   7    -0.0024450050525607
   8    0.0019561435262131
   9    -2.5772080170533e-16
  10    0.0076855568109428
  11    0.00031929465300601
  12    -1.7737344823982e-16
  13    0.00080607829349215
  14    0.00031923531631225
  15    7.6815357605277e-05
  16    -1.5104348509042e-17
  17    0.00030543579809629
  18    -3.2970074828108e-17
  19    -0.0017969354198082
  20    -0.0008731044427723
  21    2.1054255729713e-16
  22    -0.00012722867839889
  23    3.3862729105597e-17
  24     0.032328131194868
  25    0.00062808980128299
  26      0.01164357842173
  27    0.0033569405019561
  28    0.00047127110517518
  29    -2.9509494950506e-17
  30    0.00066469418546159
  31    0.0023554536267532
  32    2.3175527918403e-16
  33    0.0086187287327772
  34    6.4922371774918e-05
  35    7.0940413111106e-17
  36    0.0010718823369046
  37    -0.00017630041707063
  38    -0.00019181783554572
  39    -5.0796364055386e-18
  40    2.8630805074862e-05
  41    -3.2182354345424e-18
  42    0.0021339663905605
  43    0.0015875371515799
  44    1.7427511015831e-16
  45    0.00025813091164071
  46    8.0959084752878e-17
  47    9.5954009553148e-05
  48     0.001707464318475
  49    -0.00013585231423546
  50    9.0251562547573e-05
  51    -6.7597596613815e-18
  52    -0.00021202407189833
  53    -0.00068681634080105
  54    -2.3322439546238e-17
  55    0.00016727278057925
 Sym= A
 Ene=               8
 Spin= Alpha
 Occup=    0.00000
   1    0.0042177124233163
   2     0.050877979483039
   3      0.14983665747062
   4      0.34242834332865
   5    0.0060408557325616
   6    1.6123912299487e-15
   7     0.059623608013784
   8    -0.0088429553067728
   9    -5.1359417518577e-16
  10     0.019378931521922
  11    -0.057206762409308
  12    -8.2180173180067e-15
  13     0.004022370704429
  14    0.0081578874062502
  15    -0.0023713661444227
  16    4.7398554672701e-17
  17    -0.0031555337131919
  18    2.4020070697977e-16
  19     0.016852703304646
  20    0.0019960488633318
  21    8.0721041208527e-18
  22    -0.0028598959525992
  23    4.4356150662738e-16
  24     0.017585647223519
  25      0.14602697419683
  26      0.30549775246191
  27     -0.11407519009005
  28      0.13181436727531
  29    7.7501469076301e-15
  30     -0.13611969652646
  31      0.11349438810287
  32    5.8633967085625e-16
  33     -0.15596638103964
  34    0.0065893481792799
  35    -5.0893462618864e-15
  36     -0.22136844995259
  37    0.00021771612268543
  38    0.0030529395729588
  39    -5.7468772317759e-16
  40    -0.00034280080790361
  41    2.9721600788412e-16
  42     -0.01077777862664
  43    -0.0022606159225797
  44    -3.8033338135587e-15
  45    -0.0003348988548401
  46    -2.6369139026482e-16
  47    -0.049155849105403
  48     -0.34753429793733
  49      -1.0073502453961
  50    -0.019800933275709
  51    2.5607112242672e-16
  52    0.0086587320304299
  53    -0.028624607588388
  54    3.9714989237159e-15
  55    -0.0077849355419869
 Sym= A
 Ene=               9
 Spin= Alpha
 Occup=    0.00000
   1     0.010372376189611
   2     0.099880742868725
   3      0.60900764829328
   4     0.026976202486827
   5      0.13962720232447
   6    4.3955227461246e-13
   7      0.14363965695664
   8     0.034895128989817
   9    3.5227064807882e-13
  10     -0.16218644196062
  11     -0.31841713062653
  12    7.2652429876982e-14
  13     0.026379261031634
  14     0.027764806234135
  15    0.0020335860478535
  16    2.2212095314465e-15
  17    -0.011472469583477
  18    2.3052953016213e-15
  19      0.13025566662927
  20     0.038808217004722
  21    -2.0318868028793e-14
  22    -0.031883502782927
  23    4.826309428918e-15
  24    -0.066353747839954
  25     -0.21640235650211
  26      -0.3906002954828
  27      0.19909920425412
  28    -0.070474606777964
  29    -4.4299773314919e-13
  30      0.36839376507841
  31    -0.078208555331566
  32    -4.0905923701276e-13
  33     -0.25903829826052
  34    -0.096400220374897
  35    -1.3052867069852e-13
  36     -0.74546954343086
  37    -0.028038820017776
  38     0.041350687886078
  39    1.3108747855075e-14
  40     0.033799493518381
  41    -1.1299738590234e-14
  42     -0.17022260491392
  43     -0.10503265089542
  44    1.5086739699078e-15
  45    -0.033947822192209
  46    -1.5789189015351e-14
  47      0.13134197401162
  48      0.20939038588366
  49     -0.44521116166362
  50    -0.0055810204611322
  51    -1.668819630174e-14
  52    -0.012205187205705
  53    -0.072231493309673
  54    -3.2398356620431e-14
  55     -0.16515485203234
 Sym= A
 Ene=              10
 Spin= Alpha
 Occup=    0.00000
   1    2.3741620206499e-14
   2    1.1313488724571e-13
   3    2.7847796493826e-13
   4    -9.0234418965977e-13
   5    2.815014558048e-14
   6     -0.17886196951777
   7    1.4996450739814e-13
   8    -1.4267333707872e-13
   9     -0.17110910751897
  10    1.4806212659531e-13
  11    -4.26339951134e-13
  12      0.15320534753668
  13    1.5871162516303e-13
  14    4.2042503015806e-14
  15    -1.684552773992e-14
  16     0.006790800030745
  17    -1.2056162218732e-14
  18     0.028562023058886
  19    5.7338218067882e-14
  20    2.7600626187849e-14
  21     0.027548010215416
  22    -5.1319929308648e-15
  23     0.068211498261571
  24    2.5084361889572e-14
  25    1.584059336082e-13
  26    5.277685948056e-13
  27    1.7471059012631e-13
  28    7.0671696667291e-14
  29     -0.31291749067989
  30    -1.4874311100791e-13
  31    6.2129480748819e-14
  32     0.097876857864411
  33    1.333374365085e-13
  34    5.1367125846218e-13
  35      0.53985692695041
  36    -2.4582218862031e-13
  37    -1.2436903509819e-13
  38    6.685524386981e-14
  39    -0.085161493574042
  40    -2.7835933328331e-14
  41      -0.0456213339399
  42    -2.2312972295613e-13
  43    1.9478280724159e-13
  44    -0.054040222886908
  45    -8.0832220337198e-14
  46      0.16373671606837
  47    -4.5746541304979e-13
  48    2.984121973104e-13
  49    -5.6629037208137e-14
  50    5.2547848777506e-14
  51     0.042677371027828
  52    3.2580144831907e-14
  53    4.5289721600355e-13
  54       0.3153035186294
  55    -1.8704161683513e-13
 Sym= A
 Ene=              11
 Spin= Alpha
 Occup=    0.00000
   1     0.024643597929358
   2     0.073137227412133
   3    -0.010420707627572
   4     -0.13758081079966
   5    -0.046518083055859
   6    -1.529262342665e-14
   7      0.19167695731445
   8     -0.15108608841486
   9    -4.4316705556225e-14
  10      0.16278082311554
  11     -0.32859417225344
  12    -2.7852473954411e-13
  13    -0.036846925525018
  14     0.023935579193994
  15    -0.0087287800268091
  16    -7.1064833368853e-15
  17    -0.017845020560226
  18    -2.7682441225601e-14
  19     0.072429642663711
  20     0.017849566287549
  21    -1.4494285659007e-14
  22     0.005584882661254
  23    -4.7596000621541e-14
  24      0.10193058041696
  25       0.3597422025741
  26      0.25892130015121
  27     -0.64530765259293
  28     0.072859223367787
  29    5.6799088754783e-13
  30     -0.16427807340383
  31    -0.072211522933143
  32    1.1140835503337e-13
  33       0.1924703601618
  34      0.47453043203131
  35    -3.43334830851e-13
  36     -0.24469971017735
  37    -0.099640077490154
  38     0.075435466106255
  39    7.4410095256851e-14
  40    -0.031110490138721
  41    4.2446489104489e-14
  42     -0.12963159414386
  43       0.2708116073117
  44    2.8376097087263e-14
  45    -0.055710541113712
  46    -1.6400857104301e-13
  47      -0.5526266810237
  48      0.79139563707121
  49    -0.081208286374981
  50     0.088061618331097
  51    -3.2600740628157e-14
  52     0.024925343744856
  53      0.46105151697975
  54    -3.1719454051882e-13
  55    -0.030608159206717
 Sym= A
 Ene=              12
 Spin= Alpha
 Occup=    0.00000
   1    0.0016897283656574
   2    -0.083995641935965
   3     -0.53635705802391
   4       1.0412345515798
   5     -0.11222197704176
   6    1.4588786445163e-12
   7     0.080896361579703
   8      0.19582969894269
   9    1.0636246559099e-12
  10      0.21918151121746
  11      0.90507806943677
  12    6.3841088209123e-13
  13    -0.033168542214442
  14     -0.02929230056096
  15     0.064077093859036
  16    1.1421514620911e-14
  17    0.0060742597806309
  18    3.7576058749394e-14
  19    0.0056567300993404
  20     -0.11205986094762
  21    -2.8252215654065e-14
  22     0.028004197225118
  23    4.0200858835348e-14
  24      0.12766059877212
  25      0.26852064764943
  26     -0.45670264970183
  27     -0.59571690999154
  28     -0.19306420869476
  29    -2.000370878531e-12
  30        0.471652019661
  31     -0.40502716497589
  32    -1.352768913983e-12
  33       0.2032994067288
  34     -0.45541555958904
  35    -4.7965945515211e-14
  36     -0.35194617361622
  37      0.11468558237735
  38     0.010317494436459
  39    -7.7271723656739e-14
  40    -0.014303278496792
  41    -9.5942723130196e-14
  42      0.29955904273374
  43    -0.059331838190701
  44    -1.4776446170267e-13
  45    -0.024601212747884
  46    7.0614354181751e-14
  47      0.28729089662316
  48       1.0118185378613
  49     -0.74629801429809
  50     0.034415289649436
  51    -1.0317882293126e-14
  52    -0.091402054759582
  53     -0.16149031257181
  54    2.5212716029949e-13
  55      0.22914668231261
 Sym= A
 Ene=              13
 Spin= Alpha
 Occup=    0.00000
   1     0.079910904182819
   2      0.28812953385916
   3     0.099342797725622
   4      0.38148071423888
   5     -0.45857392777581
   6    -6.6663326618019e-13
   7     -0.25545755353041
   8      0.14396027124552
   9    -3.9139897227832e-13
  10     -0.21313649183242
  11      0.33768988539739
  12    -4.0011860659905e-15
  13     -0.26937514763685
  14     0.068239259635661
  15    -0.055940669166604
  16    1.8595347208702e-14
  17    -0.060199034999792
  18    -2.3366004314558e-14
  19     0.044706107087898
  20     -0.26054596530337
  21    1.4479069221343e-13
  22     -0.01254764261694
  23    -8.4568539575741e-15
  24      -0.2182709278536
  25     -0.67136510304276
  26     -0.18700004938805
  27     -0.19214735826707
  28     -0.27082388317931
  29    9.0208531771036e-13
  30     -0.29711104428616
  31     -0.29349496143628
  32    3.8654671164511e-13
  33    -0.0091775010301802
  34     -0.15872658892507
  35    -1.7614313719285e-13
  36     -0.34657334412464
  37       -0.114507456232
  38     -0.15481748175249
  39    5.7880474093964e-14
  40     -0.10111350666454
  41    9.9080228345426e-14
  42     -0.17032016795492
  43      0.16166946828421
  44    6.083908340755e-14
  45    -0.056524658594974
  46    4.2637878513252e-14
  47      0.13892169870846
  48      0.22896063649355
  49      -0.2884026574215
  50     -0.16112410171794
  51    8.4837233088958e-15
  52     0.086996593839013
  53     -0.18987402649556
  54    5.9996816783885e-14
  55       0.3041713484588
 Sym= A
 Ene=              14
 Spin= Alpha
 Occup=    0.00000
   1     -0.43512798164614
   2     -0.71489193219148
   3       4.3764652251694
   4       4.1086920059295
   5    -0.053950027762853
   6    8.0854002804419e-13
   7    -0.094008974596701
   8     -0.85454947040228
   9    7.7885134785958e-13
  10      -3.2633782202233
  11      0.21439267960593
  12    3.2983473453874e-13
  13     -0.78324363546371
  14      0.18909359294702
  15      0.13856867798912
  16    3.9487075812741e-14
  17    0.0083390266564321
  18    -2.7718098084733e-14
  19       1.0033396827641
  20      0.43186090389892
  21    -1.482000751772e-14
  22      0.07222143640877
  23    -1.5791701839797e-15
  24      0.48023749206613
  25        0.966998473138
  26      -7.0193844286781
  27       -2.979361540414
  28      -0.1618552981082
  29    -5.7420939218901e-13
  30      -1.0793715038251
  31      -1.1295680111903
  32    -1.5163449225625e-12
  33      -2.0881234761883
  34     -0.79138013314296
  35    1.2525957463521e-13
  36     -0.88333962753408
  37     -0.40637754790059
  38     -0.47428553365757
  39    -2.6165364636162e-13
  40      0.25673262577638
  41    4.787215737881e-13
  42      -0.5221760981958
  43     -0.34435538423902
  44    -9.2432825083737e-14
  45      -0.1148773842278
  46    -5.5764931804569e-14
  47    -0.036743984128662
  48       1.3338927952349
  49     0.029626678164578
  50      0.11847675965097
  51    -1.0547906928019e-13
  52     -0.14383674149012
  53     -0.61128932726846
  54    2.9255345473851e-13
  55       0.0923903887803
 Sym= A
 Ene=              15
 Spin= Alpha
 Occup=    0.00000
   1     0.084916239418859
   2      0.18369865368403
   3     -0.38217817652367
   4     -0.30081348655755
   5     -0.77205395657565
   6    4.3569649282781e-13
   7      0.31417713522967
   8       1.9555365412287
   9    -6.7699699905813e-13
  10     -0.47892556651184
  11     -0.45915452202725
  12    2.6972021149832e-13
  13      0.26306896930369
  14     -0.21481729739895
  15      0.54116320581234
  16    -4.1717826292426e-13
  17      0.13715505233291
  18    3.7044257358613e-13
  19      0.30712948455996
  20     -0.46155325765584
  21    2.1944997041191e-13
  22     -0.25044556280983
  23    -3.0701499798256e-13
  24     -0.15325436969972
  25     -0.26306044798137
  26       1.4930575660709
  27       1.2002627239678
  28      0.14580879513882
  29    -4.035645601421e-13
  30     0.062873327746103
  31     -0.58910603058137
  32    6.1439971797085e-13
  33    -0.0083585176382308
  34      0.48564629568089
  35    1.2253879721071e-14
  36     -0.19490242713176
  37     -0.12117803459855
  38      0.16745912550832
  39    -1.1552716164586e-14
  40      0.17846877245808
  41    -2.3969656125654e-13
  42      0.56465570143038
  43     -0.81109424665775
  44    1.5011252365899e-13
  45     -0.26225220282991
  46    4.7893238784594e-13
  47     -0.11533480414817
  48      -1.7244941422984
  49     -0.14505879790596
  50      0.10464713597476
  51    -1.6918042416393e-13
  52     0.044592470211672
  53      0.63780081500083
  54    -3.831711255753e-13
  55     -0.23351048113756
 Sym= A
 Ene=              16
 Spin= Alpha
 Occup=    0.00000
   1    0.0075623594006357
   2     0.018252038713169
   3    -0.0045460155609127
   4     -0.20103835438803
   5    -0.0065609376171666
   6     -0.21131424068475
   7    -0.016848396978665
   8    -0.0059381082302521
   9     -0.35376898905736
  10     0.012051128691056
  11    -0.020528948148609
  12        2.030102953898
  13      0.31004205240155
  14    0.0076315840956715
  15    -0.010101678611982
  16     0.014312016101232
  17    -0.0043098035805782
  18    -0.00044064283465621
  19    -0.018064359957195
  20    -0.012503141783057
  21    -0.079919010312696
  22    -0.0038484046633102
  23    -0.027448199701568
  24    -0.015180261214603
  25    -0.032594226514939
  26     0.072263209993335
  27      0.11629521479951
  28    -0.0013648459100726
  29      0.19480480337852
  30    0.0019384041326385
  31    -0.021559602398843
  32     0.070138384405647
  33     0.036765909089654
  34     0.087924393260986
  35      -1.7428054050639
  36     -0.13359905535635
  37    -0.00023674742943734
  38    0.0014113815135601
  39     0.010276345303516
  40    -0.0092325796580068
  41     0.015520177733519
  42    -0.030065882871147
  43     0.010535649508124
  44     -0.10377691090542
  45    -0.00046113051582855
  46    -0.080192815470518
  47    -0.0056776317960983
  48      0.10599959768273
  49      0.02509121130444
  50    -0.012194226580238
  51    -0.0028983300978335
  52    0.0069606138002848
  53    -0.077041664309184
  54      0.09231001914304
  55     0.070470594505335
 Sym= A
 Ene=              17
 Spin= Alpha