[Molden Format]
made by pyscf v[2.13.1]
[Atoms] (AU)
O   1   8     0.21099695469856     0.00000000000000     2.15462460678861
N   2   7    -0.44776862100326     0.00000000000000    -0.03589262653049
H   3   1     1.18163474748449     0.00000000000000    -1.17386889907833
[GTO]
1 0
 s    8 1.00
                 11720  0.00070964594651845
                  1759  0.0054672722921914
                 400.8   0.027823118610189
                 113.7    0.10474773971146
                 37.03    0.28292084635691
                 13.27    0.44849523869833
                 5.025    0.27081688521277
                 1.013    0.01545029160744
 s    8 1.00
                 11720  -0.00031444341168873
                  1759  -0.0024821376810179
                 400.8  -0.012316355381583
                 113.7  -0.050538917343672
                 37.03   -0.13938490331632
                 13.27   -0.32507749481778
                 5.025   -0.22984830758785
                 1.013     1.0953793467883
 s    1 1.00
                0.3023                   1
 s    1 1.00
               0.07896                   1
 p    3 1.00
                  17.7   0.062679166281506
                 3.854    0.33353656587936
                 1.046    0.74123964163973
 p    1 1.00
                0.2753                   1
 p    1 1.00
               0.06856                   1
 d    1 1.00
                 1.185                   1
 d    1 1.00
                 0.332                   1

2 0
 s    8 1.00
                  9046  0.00069961741342552
                  1357  0.0053860546299287
                 309.3   0.027391021189057
                 87.73    0.10315059198201
                 28.56    0.27857066331743
                 10.21    0.44829484945412
                 3.838    0.27808592839527
                0.7466   0.015431561233271
 s    8 1.00
                  9046  -0.00030499009595337
                  1357  -0.0024080263785077
                 309.3   -0.01194444872518
                 87.73  -0.048925992909017
                 28.56   -0.13447272472496
                 10.21   -0.31511257770011
                 3.838   -0.24285783254964
                0.7466     1.0943822068542
 s    1 1.00
                0.2248                   1
 s    1 1.00
               0.06124                   1
 p    3 1.00
                 13.55   0.058905676772132
                 2.917    0.32046110671427
                0.7973    0.75304206179207
 p    1 1.00
                0.2185                   1
 p    1 1.00
               0.05611                   1
 d    1 1.00
                 0.817                   1
 d    1 1.00
                  0.23                   1

3 0
 s    3 1.00
                 13.01   0.033498726389998
                 1.962    0.23480080117413
                0.4446     0.8136829578829
 s    1 1.00
                 0.122                   1
 s    1 1.00
               0.02974                   1
 p    1 1.00
                 0.727                   1
 p    1 1.00
                 0.141                   1

[5d]
[7f]
[9g]

[MO]
 Sym= A
 Ene=               0
 Spin= Alpha
 Occup=    1.00000
   1    -0.0011424242779295
   2    -0.047180394766931
   3    -0.092676600377218
   4    -0.046354188360237
   5       0.2846785797214
   6    -7.4529965077097e-14
   7     -0.13931842001409
   8      0.25461896099432
   9    -5.3233057093312e-14
  10    -0.082011024607109
  11     0.077859602615316
  12    -3.8821922456184e-15
  13    -0.006952034864277
  14    -0.00081842628144705
  15    0.0076834811535794
  16    4.413033255267e-15
  17    0.0013853583771923
  18    1.1715647634776e-15
  19    -0.00041453170023553
  20    -0.0012689949306886
  21    6.0403315982953e-15
  22    -0.0028102404914227
  23    1.3370776346383e-15
  24    0.0046628318736088
  25      0.15973187135229
  26      0.30770099745471
  27      0.12691768600124
  28     -0.48040663436683
  29    -5.890059509273e-14
  30     0.063158037484687
  31      -0.3062427136795
  32    -3.5364015560498e-14
  33      0.02654073532261
  34    -0.051496922918007
  35    -3.8685184999572e-15
  36    0.00051046030879821
  37    0.0021671497857727
  38     0.022923516319597
  39    -6.0786755779093e-15
  40    -0.016542661414719
  41    -3.0589690237267e-15
  42    0.0089198246897412
  43    0.0053503206182911
  44    1.6626933078759e-16
  45    -0.0048882547932236
  46    -2.3423694319435e-15
  47     -0.33910877350387
  48     -0.14502419582035
  49    -0.021555705452737
  50     0.017040293663924
  51    -1.5588521041111e-15
  52    -0.018894864568954
  53     -0.00793934679852
  54    5.7625862828188e-16
  55     0.014857219222842
 Sym= A
 Ene=               1
 Spin= Alpha
 Occup=    1.00000
   1    0.00040691967529322
   2     0.072148371729108
   3      0.12563830075271
   4     0.035438973124306
   5      0.56440878219426
   6    1.3274718974056e-13
   7      0.13770990307231
   8      0.38310328575907
   9    9.4839087150008e-14
  10     0.058230998912803
  11     0.037677047837871
  12    8.4697637105814e-15
  13    -0.0070940875212605
  14    -0.0061482797885623
  15    -0.019478076872093
  16    -7.7215073420818e-15
  17    -0.0039801939337018
  18    -2.0310559386228e-15
  19    -0.00024133450705435
  20    -0.026034369249649
  21    -1.1055265871465e-14
  22    -0.0035198528039269
  23    -2.6860720516069e-15
  24    -0.0043200410754458
  25    -0.042853362736983
  26     0.029262471086281
  27     0.037516057091362
  28     0.092529282871313
  29    1.0498805972743e-13
  30     -0.26463016296303
  31    -0.010839616142825
  32    6.2963128998081e-14
  33    -0.075432632546013
  34    -0.010524330139932
  35    4.6784423865445e-15
  36    -0.0094397512012454
  37    -0.031092665901005
  38    0.0047030869172711
  39    1.0743905429493e-14
  40     0.011084933093131
  41    5.6389475105014e-15
  42     0.013013806987822
  43    -0.0090074896057956
  44    -6.5906019805444e-16
  45    -0.0081141395299074
  46    3.7481360613994e-15
  47       0.1105190294033
  48    -0.015461544322404
  49    -0.010301632655889
  50    -0.012373787970158
  51    2.8541770414303e-15
  52    0.0059876654640226
  53    -0.00083947307066625
  54    -8.1325668142278e-16
  55     0.014304881584135
 Sym= A
 Ene=               2
 Spin= Alpha
 Occup=    1.00000
   1    -0.0020910066075497
   2     0.049590782024776
   3      0.11465898424274
   4     0.044270122090925
   5     -0.19074674012115
   6    -5.2027065529849e-13
   7      0.48431598315462
   8     -0.12760406365474
   9    -3.709544638622e-13
  10      0.29088620115082
  11    -0.015750023211513
  12    -3.4396807812192e-14
  13    0.0087117508468364
  14    -0.024494794166585
  15    -0.00019426557334829
  16    3.0316435305581e-14
  17    0.0024446597169526
  18    8.0138560586486e-15
  19    -0.023827053860033
  20    0.0017208529565541
  21    4.3226129872057e-14
  22    0.00052367887853401
  23    1.0073248029959e-14
  24    0.0015650635517517
  25    -0.012253886506673
  26      0.12768764056587
  27    -0.0036951921558221
  28     -0.27267442239778
  29    -4.1265563890579e-13
  30     -0.31253447420605
  31     -0.12290607497633
  32    -2.4683832659818e-13
  33     -0.11260582583654
  34    -0.0096345903196931
  35    -1.9707224630415e-14
  36    -0.0041480739841833
  37    -0.012573453267968
  38    -0.037150890704691
  39    -4.227541673065e-14
  40    -0.011084046760417
  41    -2.1933172520301e-14
  42    0.0040854258982284
  43    0.00015013162834329
  44    1.8536921920174e-15
  45    -0.0032476936619214
  46    -1.5124370584697e-14
  47      0.01361396675275
  48     0.048531847043321
  49    0.0053240192565403
  50    -0.0022776987349187
  51    -1.1095569957281e-14
  52    -0.0079917227711036
  53    -0.0099509802096595
  54    3.3259972605426e-15
  55    0.0099963435812912
 Sym= A
 Ene=               3
 Spin= Alpha
 Occup=    1.00000
   1    -1.6741135895475e-15
   2    -3.1285863924379e-13
   3    -4.7282225764806e-13
   4    -1.0012858721834e-13
   5    -4.5375006667397e-13
   6      0.46121976843488
   7    3.0103949525261e-13
   8    -2.661426783771e-13
   9      0.32974340462069
  10    2.7527215125418e-13
  11    -2.1190804917691e-14
  12     0.030802567338183
  13    3.3381313519248e-14
  14    -8.4466794247706e-15
  15    1.3655674922388e-14
  16    -0.026824120160976
  17    2.4441427180078e-15
  18    -0.0071124454579522
  19    -1.8103543983802e-14
  20    7.0042015707023e-15
  21    -0.038877470563028
  22    1.7053766035606e-16
  23    -0.0090210235614492
  24    1.8404563476749e-14
  25    7.7659570617428e-13
  26    9.7633879824808e-13
  27    1.2515945517848e-13
  28    -3.3671569241904e-13
  29      0.36554341648903
  30    -6.0637061571851e-13
  31    -2.0828908488661e-13
  32      0.21781160050653
  33    -1.5982873567485e-13
  34    -3.6394005764083e-15
  35     0.017054177082774
  36    1.4628361476151e-14
  37    -1.5200537723027e-14
  38    -6.8893081250071e-14
  39     0.037460083469865
  40    -5.4772615874616e-15
  41     0.019463655437898
  42    3.4467713592433e-14
  43    3.8179760973682e-14
  44    -0.0022756620392066
  45    -2.3604056907267e-14
  46     0.013052508618961
  47    4.4549407133764e-13
  48    7.5392109249744e-14
  49    -8.1095768845295e-16
  50    -5.7247213758703e-14
  51    0.0098714669262827
  52    2.0363103385187e-14
  53    -2.8105027701938e-16
  54    -0.0027623694064091
  55    1.6789962202607e-15
 Sym= A
 Ene=               4
 Spin= Alpha
 Occup=    1.00000
   1    -0.0063511471421218
   2      0.25029193523959
   3      0.36892300526298
   4     0.058870317229379
   5     0.058044128508202
   6    8.475276039702e-13
   7     0.094558342886845
   8     0.024425647114545
   9    6.0750346711187e-13
  10     0.012321580237986
  11    0.0038149434557019
  12    5.6354147300558e-14
  13    -0.0074791408945883
  14    -0.0077902272937534
  15    -0.0026956036652314
  16    -4.9195760964399e-14
  17    0.0010808380046895
  18    -1.2993633622466e-14
  19    -0.0038535025850682
  20     0.001739755023766
  21    -7.2191827883949e-14
  22    0.00074447785048368
  23    -1.6907655196038e-14
  24    -0.012162396810946
  25     -0.36794578041816
  26     -0.40796820865363
  27    -0.046706467208769
  28    -0.037471089601126
  29    6.7192330902573e-13
  30      0.19883711029045
  31    0.0097921745064917
  32    3.9899085084509e-13
  33     0.031467212277314
  34    -0.0039834204753036
  35    3.1824379758064e-14
  36    -0.0053703792271238
  37     0.009151785507052
  38     0.017797697690751
  39    6.8839266830399e-14
  40    -0.0069974936798617
  41    3.5737077014455e-14
  42    -0.018043965829204
  43    -0.017401978245315
  44    -5.1588322295137e-15
  45     0.010788217936682
  46    2.3669558838276e-14
  47     -0.26770458909966
  48    -0.023464399303535
  49    0.0010226520238187
  50      0.03085879566413
  51    1.8205377226123e-14
  52    -0.017091319695833
  53    -0.0063503062020866
  54    -5.1552117104902e-15
  55    0.0034266828235562
 Sym= A
 Ene=               5
 Spin= Alpha
 Occup=    1.00000
   1    -0.0035166930326146
   2      0.40060886928937
   3       0.4665121958348
   4     0.044932485098849
   5    -0.052099407514265
   6    -1.3645946588834e-13
   7    -0.031685383876529
   8    -0.032788138944355
   9    -9.8035293913254e-14
  10    -0.031772417056861
  11    -0.00082288098786039
  12    -8.8827225622341e-15
  13    0.0043501565438815
  14     0.011082620485923
  15     0.007053936378185
  16    7.9641853944393e-15
  17     0.000906279771315
  18    2.0904681404542e-15
  19     0.011555850721268
  20    0.0052213932033447
  21    1.1487215268488e-14
  22    0.0018476576127411
  23    2.7878160765632e-15
  24    -0.0056429692120303
  25      0.25712232028028
  26      0.10574503431989
  27    -0.0099856257680506
  28      0.02190606501944
  29    -1.0827950903147e-13
  30     0.085151154742174
  31    -0.029117960618435
  32    -6.4268286598442e-14
  33    -0.046373417192426
  34    -0.00024437458854428
  35    -5.2171785135365e-15
  36    -0.0093053230971319
  37     0.020963323961528
  38     0.011066315770949
  39    -1.1056252784158e-14
  40    0.00043030416324676
  41    -5.8209869163352e-15
  42    -0.012673006843009
  43    -0.001670673012255
  44    8.6588561803503e-16
  45    -0.0084046179636167
  46    -3.7361504426069e-15
  47      0.07850076925043
  48    -0.016548955978074
  49    7.9263672748699e-05
  50    -0.013512442549731
  51    -2.8843418553388e-15
  52    0.0098105972543848
  53    0.0092845713280156
  54    6.4453532335579e-16
  55    -0.0072972572225116
 Sym= A
 Ene=               6
 Spin= Alpha
 Occup=    1.00000
   1      0.99902922255435
   2    0.0030735359728317
   3    -0.015423940470051
   4    -0.004627040163618
   5    -0.00058359120097852
   6    5.0056267839332e-15
   7    0.0019332395791692
   8    0.0018848172677865
   9    3.2273735753556e-15
  10      0.01005933502109
  11    0.0002671309891078
  12    6.3577762466321e-17
  13    0.00077357039826567
  14    -7.8620517173552e-06
  15    -2.5302031524252e-05
  16    -3.4118306700462e-16
  17    0.00031770435744804
  18    -1.2106996186341e-16
  19    -0.0021155440013464
  20    -0.00093554648723142
  21    -8.7223287592709e-17
  22    -0.00014047761387374
  23    -3.6244546787753e-17
  24     0.078524828207482
  25    -0.004682846006011
  26    0.0075634230293779
  27    0.0028789074218966
  28    -0.0014149323585823
  29    3.9484671641091e-15
  30    -0.00030318506871093
  31    0.0018662097495139
  32    2.7458916830352e-15
  33    0.0085072635614707
  34    -5.1670136306182e-05
  35    3.3091633929206e-16
  36    0.0010793757679658
  37    -0.00032290922365911
  38    -0.0003434105712195
  39    4.0916077867544e-16
  40    -6.8436200014779e-05
  41    2.1103812368029e-16
  42    0.0020774533874541
  43    0.0014312991393912
  44    2.4575790952972e-16
  45    0.00037607531015908
  46    2.6783469394548e-16
  47    -0.0026239380764426
  48    0.0022323508426311
  49    -6.6070583118029e-05
  50    0.00046392591708355
  51    9.5636390709384e-17
  52    -0.00049416526934369
  53    -0.00096261010702476
  54    -6.9586782777225e-17
  55    0.00039439494567574
 Sym= A
 Ene=               7
 Spin= Alpha
 Occup=    1.00000
   1    -0.078441245291677
   2    0.0035232856271346
   3    0.0033912568051918
   4    -0.00068194394247942
   5    0.00062376909641087
   6    2.314099958564e-15
   7    1.9293488784789e-05
   8    0.00088088874667418
   9    -1.0383754483048e-15
  10    0.0012270661626138
  11    7.7611640963766e-05
  12    -1.8218751161792e-15
  13    0.0002549144659381
  14     -0.00030012316493
  15    -0.00011172090016862
  16    -8.9753285820285e-16
  17    -5.8880549900654e-05
  18    -2.8256225013516e-16
  19    -0.00094704447706022
  20    -0.00057386415985749
  21    2.7258703425985e-15
  22    -0.00015995276722057
  23    6.5590012173986e-16
  24      0.99856945286962
  25    -0.0002915016714925
  26    -0.010033045512956
  27    -0.0023069953241555
  28    0.0024242197960641
  29    1.875782300842e-15
  30    0.0040266374679005
  31    -0.002053956571871
  32    4.6449206641963e-15
  33    0.0015349308033233
  34    -0.00064525302111234
  35    1.6351620980946e-15
  36    0.00046541981148684
  37    0.00078279778804187
  38    0.00036474894731725
  39    3.4248194933701e-16
  40    0.00050808260574564
  41    1.4582434623653e-16
  42    -0.00058718378476634
  43    -0.00016061296719894
  44    2.3782959730653e-15
  45    -0.00026238756698891
  46    1.1682882069075e-15
  47     -0.00208700752944
  48    0.0055444517553403
  49    0.00061797193217128
  50    0.00075439074300492
  51    -6.9922035339924e-17
  52    -0.00043312609131374
  53    -0.0019207622866352
  54    -4.0384620265863e-16
  55    0.0015345986981137
 Sym= A
 Ene=               8
 Spin= Alpha
 Occup=    0.00000
   1    5.3592971552824e-15
   2    9.7862770404436e-16
   3    -1.4974394765173e-13
   4    -3.0333130000377e-13
   5    -7.0490360364157e-15
   6     -0.20402729087918
   7    -1.6794433092827e-14
   8    2.9733573198591e-14
   9     -0.18060564206551
  10    5.9062761700623e-14
  11    1.4557367875388e-13
  12     -0.25474178812993
  13    1.6003399653449e-13
  14    3.0680742228112e-15
  15    -7.7647798110785e-15
  16     0.014473796784563
  17    -2.5473568018141e-15
  18    0.0030340907509982
  19    -9.8781552685747e-15
  20    -1.9864093394681e-14
  21     0.020647697179591
  22    -8.1408808210324e-15
  23    -0.0088804330974268
  24    3.9403766001484e-15
  25    -7.8025791577697e-15
  26    -6.2446621542524e-14
  27    6.7500598491808e-15
  28    9.2126451876767e-14
  29     0.030815372951582
  30    -2.3811373991485e-14
  31    1.1041644569144e-13
  32    -0.082020231676263
  33    1.2865650484459e-13
  34    -7.25874087006e-13
  35       1.2590475645524
  36    2.1450007157253e-13
  37    -5.9474828884484e-15
  38    1.3293993403538e-14
  39    -0.031149592777119
  40    8.6129227791391e-15
  41    -0.0082440649901877
  42    4.8414863046021e-14
  43    4.7232642535017e-14
  44    -0.076494220453008
  45    -2.3311463289733e-14
  46      0.03484890200201
  47    -1.0351379086075e-14
  48    3.767573890309e-13
  49    3.2242655077825e-13
  50    -7.9761325610951e-15
  51     0.012427083963482
  52    5.7300794943036e-15
  53    -6.073108347268e-14
  54    -0.044061700793633
  55    1.216077637753e-13
 Sym= A
 Ene=               9
 Spin= Alpha
 Occup=    0.00000
   1    -1.1690769050751e-15
   2    -6.805104028321e-15
   3    1.8482231494731e-14
   4    9.6623497615704e-14
   5    2.7013693966847e-14
   6     -0.42179290453764
   7    4.7879727535046e-14
   8    -1.1411782551292e-14
   9     -0.34201308071754
  10    9.3486106257504e-15
  11    -7.0663982686381e-14
  12    -0.081570433505082
  13    -8.1989143358576e-14
  14    -2.4675502602979e-15
  15    6.1643554884565e-15
  16    -0.014013144842611
  17    -1.9559341234178e-16
  18    0.0014944615720626
  19    3.1207062465105e-15
  20    1.4991389247518e-14
  21    -0.004838741925529
  22    4.7829683412744e-16
  23    0.0069598407435127
  24    -3.2501651857256e-17
  25    1.4321362635562e-14
  26    6.3282499110158e-14
  27    6.9744995751803e-15
  28    -6.2277841052823e-14
  29       0.5473754028461
  30    6.706888904453e-14
  31    -4.4868071887697e-14
  32      0.54431931023195
  33    -7.8733429076215e-15
  34    3.501098754023e-13
  35     -0.39723099625701
  36    -1.0221456741941e-13
  37    2.7872696345824e-15
  38    -1.0838329825532e-14
  39    0.0016985931168676
  40    -4.0836446208086e-15
  41     0.018387853725295
  42    -1.7145498607657e-14
  43    -2.1770285736055e-14
  44     0.025719918765632
  45    1.6192680343606e-14
  46    0.0029850609408162
  47    2.6576018792716e-14
  48    -1.3505732130183e-13
  49    -1.5050966082886e-13
  50    7.8425580186823e-15
  51     0.013514599657785
  52    -3.4873365950977e-15
  53    3.7909867897228e-14
  54     0.063670309278011
  55    -5.3039314250724e-14
 Sym= A
 Ene=              10
 Spin= Alpha
 Occup=    0.00000
   1    -2.0138771529689e-14
   2    -4.5163876418739e-13
   3    -1.3130071095052e-12
   4    -2.8947576116419e-12
   5    4.0831395507073e-14
   6     -0.37469691174651
   7    1.0469342783039e-12
   8    4.2408299050792e-13
   9     -0.18640408647471
  10    1.0517669749779e-12
  11    4.341308072781e-13
  12       1.4536052081822
  13    1.2724831393085e-12
  14    1.1760912572357e-13
  15    -2.8405022344255e-16
  16       0.1171130281185
  17    9.1471029777499e-14
  18    -0.0086331604977479
  19    1.5121869406038e-13
  20    -4.1845290583879e-14
  21      0.19106354457392
  22    2.4689443543363e-13
  23    -0.070540747453394
  24    8.6900230285351e-14
  25    6.1404749905707e-13
  26    1.3975592599989e-12
  27    3.5407152624392e-12
  28    6.5928416376316e-13
  29      0.33546363065239
  30    1.1822161440559e-12
  31    5.2381855421857e-13
  32     -0.15044668827323
  33    8.7061381168186e-13
  34    1.1471940500498e-13
  35     -0.92087371560118
  36    8.1891429177837e-13
  37    -9.4357169143294e-14
  38      4.1283465533e-14
  39    -0.0088329844121372
  40    5.7958673381391e-14
  41    -0.048544811175124
  42    -1.1750593787843e-13
  43    1.4357154497552e-14
  44      0.26698433727493
  45    1.669927165235e-15
  46     0.092103974143667
  47    -3.326898784574e-13
  48    -5.2630791117566e-13
  49    -2.7884778196683e-13
  50    1.1766813418301e-14
  51    0.00071553587106033
  52    4.5940742133271e-14
  53    -3.647306667357e-13
  54    -0.056454933025096
  55    2.3428050384655e-13
 Sym= A
 Ene=              11
 Spin= Alpha
 Occup=    0.00000
   1    -0.0075510235028525
   2    0.0065002206320008
   3     -0.32737154827275
   4       1.5206052549898
   5      0.20130487936017
   6    3.6459031840091e-13
   7     0.076466612114956
   8     0.080513289905236
   9    -1.2687147835735e-12
  10    -0.082901247902529
  11     -0.59189473816119
  12    2.8434847460281e-12
  13     -0.59285916679108
  14     -0.11117586146759
  15    -0.005599245057103
  16    2.9688642924713e-13
  17     -0.16313077540007
  18    -1.3268291184789e-13
  19     -0.15864593505844
  20    -0.0042966154968091
  21    7.5659562332833e-13
  22     -0.39477480883469
  23    -2.8795853072921e-13
  24    -0.034036592709794
  25     -0.12106490839723
  26     0.049554432896174
  27      -2.6140458005608
  28     -0.26037926960266
  29    6.8732587419586e-13
  30    -0.015494477790738
  31     -0.33573775587347
  32    -1.0224359602163e-12
  33      0.51101761388315
  34     0.071771151956026
  35    -2.5208994087711e-12
  36      -0.2387512940114
  37     0.003182853199518
  38    -0.024454635008335
  39    -4.1018458550602e-13
  40    -0.044687913543376
  41    -2.4829044558193e-13
  42      0.17346113361332
  43     0.088750475889628
  44    4.1245323460005e-13
  45    -0.072324574652658
  46    5.7059099252281e-13
  47      0.33396432057345
  48       1.1632259867146
  49    0.0050706971506643
  50    -0.0051477781490771
  51    7.1556971423247e-14
  52    -0.0068589453347581
  53     0.011429605614807
  54    2.1680721106116e-12
  55      -0.1168813273354
 Sym= A
 Ene=              12
 Spin= Alpha
 Occup=    0.00000
   1    -9.9712911854726e-14
   2    -4.1033531512858e-13
   3    4.2368956781609e-13
   4    -2.9335625929547e-12
   5    -3.6610897828187e-13
   6      0.42886980250392
   7    -1.4519384329407e-13
   8    -2.7641579777208e-14
   9     -0.34379721961829
  10    3.9467151924356e-13
  11    1.2188171674523e-12
  12      0.46927142637821
  13    1.6253745506565e-12
  14    2.1003498316862e-13
  15    -5.5310586688587e-15
  16     0.064373984194366
  17    3.3111576349069e-13
  18    -0.027456367121587
  19    2.9397273125118e-13
  20    -2.1022384275667e-14
  21      0.25300403953169
  22    7.4654669889064e-13
  23     -0.01877021434919
  24    -2.2892027996585e-13
  25    -5.7400892982193e-13
  26    -1.0540707966019e-13
  27    5.0958393944372e-12
  28    1.6116796545421e-13
  29      0.47878301452536
  30    7.0876309456041e-13
  31    5.3743603756697e-13
  32     -0.73411287491246
  33    -6.5067281115563e-13
  34    -4.2806260410243e-14
  35     -0.58892470669575
  36    3.5129078377585e-13
  37    -5.8012921058441e-14
  38     2.40357912086e-14
  39      -0.1694012852384
  40    1.6016441932187e-13
  41    -0.090973459047241
  42    -4.3126002831526e-13
  43    -2.25813558275e-13
  44     -0.12952329602133
  45    8.0995460392331e-14
  46      0.19161418398326
  47    -2.6895256106621e-13
  48    -1.037753061883e-12
  49    -1.1103830558912e-13
  50     6.28784433906e-14
  51    0.0094277850623749
  52    1.4007905323354e-14
  53    -8.4907651579088e-13
  54      0.91967355607299
  55    4.9665030304922e-13
 Sym= A
 Ene=              13
 Spin= Alpha
 Occup=    0.00000
   1    2.9049122885974e-13
   2    8.2656049534834e-13
   3    4.3991811360297e-13
   4    -2.5248209826201e-12
   5    -3.0145390165142e-13
   6     -0.11899054765412
   7    -4.5128894663809e-13
   8    -1.813814207246e-15
   9     0.025205999217715
  10    -4.9264455089728e-13
  11    1.0216570373426e-13
  12      0.45667615956843
  13    8.6578258400724e-13
  14    1.7708604239184e-13
  15    7.0604283665651e-14
  16     -0.17563525970432
  17    1.4335106675319e-13
  18     -0.16429392635204
  19    3.641406488536e-13
  20    -3.5191958920899e-14
  21      -0.2317108778338
  22    3.9591347046042e-13
  23     -0.61355211967763
  24    -3.0562732609942e-13
  25    -8.9596253565784e-13
  26    -6.3459153476298e-13
  27    3.1426106780053e-12
  28    -1.2863367568919e-13
  29     -0.57954848438082
  30    -3.6495257446406e-13
  31    -2.3640238842946e-13
  32      0.23465900301759
  33    -7.1969346562319e-13
  34    5.3774410063741e-13
  35     -0.62889934986751
  36    6.3684580120458e-13
  37    -2.2739460696289e-13
  38    7.3362601202807e-14
  39     -0.20224179995933
  40    -8.3187202410658e-14
  41      0.15367069814412
  42    -4.07573266899e-13
  43    -3.0150241670178e-13
  44    -0.024132522532699
  45    -1.9991208801831e-13
  46      0.39347912397063
  47    -4.7489574983947e-14
  48    -1.2118217677133e-13
  49    -2.2722880451702e-13
  50    -1.1180636894117e-14
  51     0.074911514552097
  52    3.0110169757039e-14
  53    -3.4522875626564e-13
  54      0.27286612746886
  55    4.7701812576435e-13
 Sym= A
 Ene=              14
 Spin= Alpha
 Occup=    0.00000
   1    3.5887272256319e-13
   2    9.9811871696386e-13
   3    -8.8744973850129e-13
   4    -5.7110170389861e-13
   5    8.4150575480204e-14
   6     -0.80281559907125
   7    -1.1351448736902e-12
   8    -9.6586285729401e-13
   9       1.9072601309072
  10    7.0447374139104e-13
  11    2.5607414834222e-13
  12     -0.60733386696444
  13    4.8257218820589e-13
  14    6.2026550862623e-14
  15    -9.218914978054e-15
  16      0.25607519851839
  17    -2.4240193117578e-13
  18       0.3523605965159
  19    -2.6754115337899e-13
  20    1.6957466996385e-13
  21     -0.49471861553855
  22     3.92331354872e-13
  23     -0.14361489664287
  24    -2.08123869257e-13
  25    -8.0281232305977e-13
  26    2.274594411958e-13
  27    1.1065140105898e-12
  28    -4.4277703626089e-13
  29    -0.031418229321985
  30    -5.1034416736738e-13
  31    8.5439787451877e-13
  32      -1.0735448629669
  33    -9.4813599343314e-14
  34    -5.2016182981772e-14
  35      0.14469423943411
  36    -3.2125274748846e-13
  37    5.4985011506445e-14
  38    -1.9672829839463e-13
  39      0.16463303117112
  40    1.4705476505491e-13
  41    -0.056114010053867
  42    -2.091125073932e-13
  43    5.0128094595204e-13
  44     -0.72490088534807
  45    1.315201567603e-13
  46    -0.086215669744769
  47    -1.721160836841e-14
  48    4.288501825839e-13
  49    -3.9927444923773e-13
  50    7.5823370125505e-14
  51     0.039640865585247
  52    -8.8475944036715e-14
  53    -4.7859133444458e-13
  54      0.43482602737401
  55    3.0831909525893e-13
 Sym= A
 Ene=              15
 Spin= Alpha
 Occup=    0.00000
   1    7.0256313965402e-13
   2    1.4694195864207e-12
   3    -5.1092358696581e-12
   4    -1.2692532763533e-12
   5    3.2489218469689e-14
   6     -0.16387891000838
   7     1.10568423853e-13
   8    3.2298917000776e-13
   9      0.77743928880046
  10    3.2517257953551e-12
  11    -4.1749539620779e-13
  12      -0.8007714858327
  13    1.5692096363822e-13
  14    -4.875507896694e-13
  15    8.1314041789502e-14
  16     -0.10726288769632
  17    -1.9254810185185e-14
  18     -0.10298189866391
  19    -1.1986109397476e-12
  20    -1.6021896935643e-13
  21     -0.28193696637995
  22    -1.9546388938098e-13
  23     -0.15579173323773
  24    1.3616277679461e-12
  25    3.4096012693631e-12
  26    9.442463656403e-13
  27    -1.3405521507817e-12
  28    1.1828731437524e-12
  29      0.36417861501615
  30    -5.14210432242e-13
  31    7.4131634773006e-13
  32     -0.91226319391994
  33    3.4732572229187e-12
  34    -1.2442754125446e-12
  35      0.95898876243813
  36    -4.3073469262804e-13
  37    -1.720357059035e-13
  38    -4.7016759808889e-14
  39     -0.84799588482337
  40    -5.4157074440607e-14
  41       0.4316989416737
  42    1.1602739219419e-12
  43    1.2673791827235e-12
  44      0.18034243640602
  45    -6.3052857094423e-14
  46     -0.12146492841644
  47    -6.5756627814044e-13
  48    3.3601090798563e-12
  49    -7.2972249137304e-13
  50    5.7210445608719e-13
  51      0.07188302019232
  52    -2.8491818616081e-13
  53    -2.9860120783591e-13
  54     -0.30010381694316
  55    1.2987406506304e-12
 Sym= A
 Ene=              16
 Spin= Alpha
 Occup=    0.00000
   1    0.0075016814437911
   2    0.0073983704173467
   3     -0.29707060961215
   4     -0.73575790333032
   5    -0.028686408740053
   6    -0.007215260149133
   7      0.01770853519559
   8    -0.054567005270605
   9     -0.29211001372828
  10     0.092940585936179
  11       1.2886150524458
  12     -0.47156833418864
  13      -0.0489270475046
  14    -0.035880191274588
  15     0.008368939996266
  16     0.047209121483716
  17    -0.040864428412401
  18    -0.067385260723901
  19    -0.049000591696141
  20    -0.069296204802066
  21      0.34920467433724
  22     -0.11477161054059
  23     -0.10733528407398
  24    -0.030402918675029
  25     -0.14393170124389
  26      0.31061386266286
  27       2.9415704671999
  28    -0.043351026551186
  29     0.098151927579867
  30     0.049385288454435
  31      0.19154611181884
  32        0.225962476318
  33      0.25703678697158
  34     -0.88104170493668
  35        0.389007156797
  36     0.040397765681429
  37    -0.0031171809896729
  38    -0.0024058414017148
  39      0.10808876211408
  40    0.00030134542484845
  41     -0.11393741363644
  42      0.17487016894497
  43    -0.068539293598597
  44      0.37913737213307
  45    -0.048647898379502
  46       0.2549043362732
  47      0.11609486402751
  48     -0.60513256730216
  49      -1.6341368640318
  50     0.017009119829566