[Molden Format]
made by pyscf v[2.13.1]
[Atoms] (AU)
O   1   8     0.21099695469856     0.00000000000000     2.15462460678861
N   2   7    -0.44776862100326     0.00000000000000    -0.03589262653049
H   3   1     1.18163474748449     0.00000000000000    -1.17386889907833
[GTO]
1 0
 s    8 1.00
                 11720  0.00070964594651845
                  1759  0.0054672722921914
                 400.8   0.027823118610189
                 113.7    0.10474773971146
                 37.03    0.28292084635691
                 13.27    0.44849523869833
                 5.025    0.27081688521277
                 1.013    0.01545029160744
 s    8 1.00
                 11720  -0.00031444341168873
                  1759  -0.0024821376810179
                 400.8  -0.012316355381583
                 113.7  -0.050538917343672
                 37.03   -0.13938490331632
                 13.27   -0.32507749481778
                 5.025   -0.22984830758785
                 1.013     1.0953793467883
 s    1 1.00
                0.3023                   1
 s    1 1.00
               0.07896                   1
 p    3 1.00
                  17.7   0.062679166281506
                 3.854    0.33353656587936
                 1.046    0.74123964163973
 p    1 1.00
                0.2753                   1
 p    1 1.00
               0.06856                   1
 d    1 1.00
                 1.185                   1
 d    1 1.00
                 0.332                   1

2 0
 s    8 1.00
                  9046  0.00069961741342552
                  1357  0.0053860546299287
                 309.3   0.027391021189057
                 87.73    0.10315059198201
                 28.56    0.27857066331743
                 10.21    0.44829484945412
                 3.838    0.27808592839527
                0.7466   0.015431561233271
 s    8 1.00
                  9046  -0.00030499009595337
                  1357  -0.0024080263785077
                 309.3   -0.01194444872518
                 87.73  -0.048925992909017
                 28.56   -0.13447272472496
                 10.21   -0.31511257770011
                 3.838   -0.24285783254964
                0.7466     1.0943822068542
 s    1 1.00
                0.2248                   1
 s    1 1.00
               0.06124                   1
 p    3 1.00
                 13.55   0.058905676772132
                 2.917    0.32046110671427
                0.7973    0.75304206179207
 p    1 1.00
                0.2185                   1
 p    1 1.00
               0.05611                   1
 d    1 1.00
                 0.817                   1
 d    1 1.00
                  0.23                   1

3 0
 s    3 1.00
                 13.01   0.033498726389998
                 1.962    0.23480080117413
                0.4446     0.8136829578829
 s    1 1.00
                 0.122                   1
 s    1 1.00
               0.02974                   1
 p    1 1.00
                 0.727                   1
 p    1 1.00
                 0.141                   1

[5d]
[7f]
[9g]

[MO]
 Sym= A
 Ene=               0
 Spin= Alpha
 Occup=    1.00000
   1    4.1742939700715e-16
   2    -1.3828945268999e-14
   3    -3.7732541285875e-14
   4    -4.6335454513837e-14
   5    -4.3288165312233e-14
   6      0.46121976843488
   7    -4.3503522505785e-14
   8    -2.4349294555231e-14
   9      0.32974340462069
  10    -1.3911346527862e-14
  11    2.7927790684943e-15
  12     0.030802567338183
  13    7.647619274723e-15
  14    1.5101580055543e-15
  15    2.7447015337733e-15
  16    -0.026824120160976
  17    5.0375081774675e-16
  18    -0.0071124454579522
  19    -8.9707587934706e-16
  20    2.3956652759172e-15
  21    -0.038877470563028
  22    7.0414231036703e-17
  23    -0.0090210235614492
  24    5.2891003367842e-16
  25    1.1554402542575e-14
  26    1.6849381500687e-14
  27    3.9702786716629e-14
  28    -2.9281690439804e-14
  29      0.36554341648903
  30    4.8683525078211e-14
  31    -8.3173390593506e-15
  32      0.21781160050653
  33    2.8491883685061e-14
  34    3.8635000436447e-15
  35     0.017054177082774
  36    1.0778635318108e-14
  37    4.5990212587173e-15
  38    2.3777112726189e-15
  39     0.037460083469865
  40    -2.0109208930216e-15
  41     0.019463655437898
  42    1.5560298017519e-15
  43    4.4069593186403e-15
  44    -0.0022756620392066
  45    1.7606939330769e-15
  46     0.013052508618961
  47    -3.4309108355786e-14
  48    -7.1889806638407e-15
  49    -4.6757822246362e-15
  50    2.5625023563255e-15
  51    0.0098714669262827
  52    -1.8378062167285e-15
  53    -2.5158551947013e-15
  54    -0.0027623694064091
  55    -5.9838131816057e-16
 Sym= A
 Ene=               1
 Spin= Alpha
 Occup=    1.00000
   1    -0.0011323851803979
   2    -0.0099879688105435
   3    -0.031383798817226
   4    -0.029438280674772
   5      0.48649776680219
   6    -4.3715429926019e-15
   7    -0.091883988110862
   8      0.38659297160738
   9    -3.1224200939473e-15
  10    -0.063812636771048
  11     0.086900196517965
  12    5.5262160047064e-16
  13    -0.0095105750654369
  14    -0.0022405039089333
  15    -0.00035427632778503
  16    3.2571573813289e-16
  17    -0.00031383306793325
  18    9.534259888985e-17
  19    0.0004379776176944
  20     -0.01115472322032
  21    2.0867740147287e-16
  22    -0.0039337582973916
  23    -6.0008140268395e-17
  24    0.0024127031591879
  25      0.12871491101007
  26      0.28581320779776
  27      0.13085304377784
  28      -0.3981754381224
  29    -3.3814913741678e-15
  30    -0.028562438240426
  31     -0.28242093078883
  32    -2.0888619852923e-15
  33    -0.00049920824462671
  34     -0.05125986905457
  35    -1.2543978673849e-15
  36    -0.0031772385090692
  37    -0.0091539744483114
  38     0.024641493165808
  39    -3.9195747846574e-16
  40    -0.010700489114066
  41    -9.2583209607979e-17
  42     0.012697233908345
  43    0.0012067535334034
  44    -1.5212720219384e-16
  45    -0.0074424310068529
  46    -3.3094024308498e-16
  47     -0.27382967030659
  48     -0.14194505379374
  49    -0.024015375572758
  50     0.011346550188956
  51    -5.5207712399974e-17
  52    -0.014986456475918
  53    -0.0072866932418588
  54    1.286166617695e-16
  55     0.018817449563264
 Sym= A
 Ene=               2
 Spin= Alpha
 Occup=    1.00000
   1    0.0047644416442668
   2      0.03302363954932
   3     0.094173451070672
   4     0.045085044824353
   5    -0.083681301598139
   6    3.1604510017804e-14
   7      0.49254457388503
   8    -0.056166086304657
   9    2.3347901178373e-14
  10      0.29629174270025
  11    -0.011501343313861
  12    2.3405362535556e-15
  13    0.0082069526797792
  14    -0.023943639214383
  15    -0.0044664814291193
  16    -1.7977679836739e-15
  17    0.0012854734156938
  18    -5.0365462100119e-16
  19    -0.022561023336812
  20    -0.0041667466704865
  21    -3.1350667833749e-15
  22    -0.0002146017529088
  23    -6.8848342484986e-16
  24    0.00057735474030806
  25      0.01857360851636
  26      0.16727743806619
  27    0.0042281031041915
  28     -0.21384308994697
  29    2.4663849449324e-14
  30      -0.3886885002497
  31      -0.1066646911091
  32    1.4051833719208e-14
  33     -0.13055807189255
  34    -0.0084395029694054
  35    6.5656589910391e-16
  36    -0.0053711751294501
  37    -0.020227503742311
  38    -0.038371137130729
  39    2.5406778982267e-15
  40    -0.0065383981953803
  41    1.3627716381602e-15
  42    0.0086985188043134
  43    0.00019760575840002
  44    -7.1073689927958e-16
  45    -0.0060525198899961
  46    5.5726190228176e-16
  47     0.089432842390272
  48     0.054012617049269
  49    0.0038703503744947
  50    -0.0097835616854945
  51    7.0733196496047e-16
  52    -0.0032268802453929
  53    -0.0085668383851961
  54    1.3856975218231e-17
  55      0.01156199680278
 Sym= A
 Ene=               3
 Spin= Alpha
 Occup=    1.00000
   1    0.0015517396819682
   2      0.12493124214897
   3      0.20627575849085
   4     0.054407316749723
   5      0.43610883115686
   6    5.4678467252814e-14
   7      0.11136818693088
   8       0.2687048090264
   9    3.9262747497764e-14
  10     0.033513934384322
  11    0.0076109977572432
  12    2.7551014541447e-15
  13    -0.0072890727196672
  14    -0.0031226512572383
  15    -0.020727436735678
  16    -3.1985647746302e-15
  17    -0.0041549639440354
  18    -8.1595830260319e-16
  19    0.0027758265189908
  20    -0.022185012615169
  21    -4.4797681067792e-15
  22    -0.0019707243238215
  23    -1.1743265605946e-15
  24    -0.0052792349362953
  25      -0.2020919190989
  26     -0.22518380724375
  27     -0.02621575260051
  28      0.29753281855299
  29    4.3196233058879e-14
  30     -0.14718512321719
  31      0.13034279805271
  32    2.5996073147426e-14
  33    -0.045258305361717
  34     0.010706041862036
  35    2.4624099151677e-15
  36    -0.0087736682449346
  37    -0.023845926500238
  38    0.0065962867374539
  39    4.4215622509021e-15
  40     0.015897406862797
  41    2.297962587868e-15
  42    0.0028522262782524
  43    -0.014461119762867
  44    -3.3049915138114e-16
  45    -0.0014699855252855
  46    1.6136957928416e-15
  47      0.14552308948273
  48     0.026210597859568
  49    -0.0016022306141271
  50    -0.0079574141573265
  51    1.1769035041251e-15
  52    0.0087565440755615
  53    0.0019822026471603
  54    -4.4606397415385e-16
  55    0.0062834754408162
 Sym= A
 Ene=               4
 Spin= Alpha
 Occup=    1.00000
   1    0.00018943736183922
   2      0.28327161669748
   3      0.40128890195946
   4     0.058674692279262
   5    -0.085250019228007
   6    -1.2670669874825e-14
   7      0.13167023585376
   8    -0.066370879047853
   9    -7.4596375448685e-15
  10     0.040681716915279
  11    -0.0011844347564176
  12    -8.2861005805763e-16
  13    -0.0039111232993329
  14    -0.0089685330599571
  15    0.0032140485027455
  16    8.4234606542158e-16
  17      0.00256028265717
  18    2.5987558777131e-16
  19    -0.0063144239964253
  20    0.0081730504297631
  21    2.1737333171046e-16
  22    0.0015884364578061
  23    -5.1586318564072e-17
  24    -0.002763779017511
  25     -0.29176917350076
  26     -0.32938745416331
  27    -0.044112440545999
  28     -0.14003976643246
  29    -9.8579151370427e-15
  30      0.20561472750366
  31    -0.039343218659092
  32    -7.3948910522906e-15
  33     0.021254712569671
  34    -0.0074253132699254
  35    -1.4543855255086e-16
  36    -0.0050686218944747
  37      0.01621121584386
  38     0.012525103267199
  39    -1.0183054996806e-15
  40    -0.012265225850901
  41    -5.6750386179201e-16
  42    -0.020191464037171
  43     -0.01429529883658
  44    -9.5882476355562e-16
  45    0.0097758278262727
  46    -7.1929192722076e-16
  47     -0.29062233783107
  48    -0.024048594158207
  49    0.0024240868506354
  50     0.030894595941737
  51    -1.9748542458219e-16
  52    -0.019028342755022
  53    -0.0069661792786293
  54    2.5620202547028e-17
  55    0.0021483351740771
 Sym= A
 Ene=               5
 Spin= Alpha
 Occup=    1.00000
   1    -0.0095616982963407
   2       0.3687773609685
   3      0.42165199530945
   4     0.039242438920528
   5    -0.030433098604337
   6    6.8519089787891e-15
   7    -0.045778439704132
   8     -0.01836334552687
   9    4.1866012174468e-15
  10    -0.035979198863675
  11    -0.0012972297495822
  12    6.4249282395145e-16
  13    0.0048062652185753
  14     0.012385021906881
  15    0.0059550504379103
  16    -3.8961838387971e-16
  17    0.0004079206343354
  18    -1.2902535437088e-16
  19     0.012669444488848
  20    0.0034555392334475
  21    -4.5549602576803e-16
  22    0.0016122529447478
  23    2.9283777696377e-17
  24    -0.0019309248255433
  25      0.29348458562581
  26       0.1434547442839
  27    -0.0060350443188396
  28     0.056408990025561
  29    5.2695997014655e-15
  30     0.051556300857778
  31    -0.016509168823504
  32    3.632630038846e-15
  33     -0.05161473558895
  34    0.0017019534359478
  35    6.5187984632819e-17
  36    -0.0089578909681687
  37     0.018128562226501
  38    0.0093423299876403
  39    5.8248142627263e-16
  40    0.0028482876751529
  41    2.2978499027113e-16
  42    -0.0099556074384733
  43    -0.00015944965917826
  44    3.1465175957864e-16
  45    -0.0098791271175637
  46    3.805146208963e-16
  47      0.12889573962719
  48    -0.010878215608022
  49    -7.1477170804487e-05
  50    -0.018484196832755
  51    1.722162264945e-16
  52      0.01309822405849
  53     0.010518095650463
  54    -2.1479947272648e-16
  55    -0.0076476437167849
 Sym= A
 Ene=               6
 Spin= Alpha
 Occup=    1.00000
   1    -0.090398127601861
   2    -0.0001009250425944
   3    -0.0011936808515477
   4    -0.0012738969969236
   5    -0.00031315822537641
   6    1.4093658641268e-16
   7    -0.00026273328224844
   8    0.0003610127829782
   9    -2.596253540775e-15
  10     0.001370301479127
  11    3.3769754197627e-05
  12    -1.9610242930468e-15
  13    0.00029924388970668
  14    -0.00030836461112168
  15    -9.2220562632143e-05
  16    -7.7117824276762e-16
  17    -6.6159655901154e-05
  18    -2.4903271665334e-16
  19    -0.00096759654267752
  20    -0.0005652054575272
  21    2.9094187506036e-15
  22    -0.00016840021814158
  23    6.9952682834935e-16
  24      0.99763851719549
  25    0.0016535532019573
  26    -0.0071403666275476
  27    -0.0019154897543059
  28    0.0019058356194894
  29    1.5256937227602e-16
  30     0.002146281354492
  31    -0.0023557244048505
  32    3.6207006458101e-15
  33    0.0013515276246048
  34    -0.00064423909574935
  35    1.5488992521617e-15
  36    0.00053747273633304
  37    0.00065451255204364
  38    0.00015265514310177
  39    1.6580008055923e-16
  40    0.00052387577606355
  41    5.462323997118e-17
  42    -0.00042819395918091
  43    -2.4591386911446e-05
  44    2.3911760075825e-15
  45    -0.00031219922613615
  46    1.1064225996031e-15
  47    -0.00066005379004416
  48    0.0057493943938733
  49    0.00061573186512871
  50    0.00059115455403935
  51    -1.1687570825097e-16
  52    -0.00036520799941506
  53    -0.0019142016280169
  54    -3.8865354503612e-16
  55    0.0015376286686204
 Sym= A
 Ene=               7
 Spin= Alpha
 Occup=    1.00000
   1      0.99798862226715
   2    0.0028819246233767
   3    -0.016731576862961
   4    -0.0052202709496643
   5    -0.00054546351259552
   6    -9.1467874956201e-18
   7    -0.0024717345189466
   8    0.0020680900045636
   9    -4.1240569251167e-16
  10    0.0077477337940807
  11    0.00033169673078898
  12    -2.9311248023348e-16
  13    0.00080867988644102
  14    0.00028504730412157
  15    6.0661788013201e-05
  16    -5.9660700145134e-17
  17    0.00030165776500794
  18    -4.7343119764681e-17
  19    -0.0018703833454357
  20    -0.000911565952616
  21    3.8054645925949e-16
  22    -0.00013909900550516
  23    7.4364836396298e-17
  24     0.090563344092751
  25    -1.5286772857472e-05
  26     0.010641756987429
  27    0.0032195128644228
  28    0.00055943931018359
  29    -2.5568285189543e-17
  30    0.00099059568928034
  31    0.0022955579179083
  32    4.388042470889e-16
  33    0.0088504011466965
  34    2.4890791547532e-05
  35    1.6200183452438e-16
  36    0.0011146444029867
  37    -0.00015254381869918
  38    -0.0001693330850614
  39    3.9985200957242e-18
  40    5.2678107290464e-05
  41    -2.7362210292755e-19
  42    0.0021099027678727
  43    0.0015738054071047
  44    3.1295104346801e-16
  45    0.00026509279139073
  46    1.4502326614631e-16
  47    -0.00036447965232295
  48    0.0020260031903726
  49    -0.00010078626227773
  50    0.00017910718197352
  51    -1.3727157564152e-17
  52    -0.00026481362097843
  53    -0.00081709605392138
  54    -4.587655291649e-17
  55    0.00026795846442288
 Sym= A
 Ene=               8
 Spin= Alpha
 Occup=    0.00000
   1    2.3741110801274e-18
   2    1.8905844103339e-15
   3    3.5705517480952e-15
   4    -2.3730076447512e-14
   5    -9.3680686634729e-15
   6     -0.43979315230346
   7    -1.2761894328606e-14
   8    1.5000249892216e-15
   9     -0.40351002176239
  10    -3.5320562268554e-15
  11    1.7034507466052e-14
  12     -0.26011807402128
  13    2.4343934518763e-14
  14    1.612719114268e-16
  15    -3.7353455192749e-17
  16    -0.0063830852766104
  17    1.2742765680744e-15
  18    -0.0029661934897291
  19    -2.1393420231855e-15
  20    -2.0752161863763e-15
  21    0.0031791195907131
  22    9.0679365456656e-16
  23    -0.0053433885753233
  24    -1.756193440243e-15
  25    -6.2480142108781e-15
  26    5.2626390223732e-15
  27    6.6112760602297e-14
  28    5.1297680279466e-15
  29      0.49215466659579
  30    -1.378681015164e-14
  31    1.2866819720253e-15
  32      0.46413352015408
  33    -8.2550592631951e-15
  34    -1.4475375575687e-15
  35      0.26081806161737
  36    -5.687090564821e-15
  37    9.0368716610905e-16
  38    -5.8231962001379e-16
  39    -0.011927789780235
  40    3.9065132870509e-16
  41    0.0077749182861424
  42    4.3650042410395e-15
  43    -1.0780173830561e-15
  44    -0.004011065690373
  45    5.3825423515982e-16
  46     0.011268713120879
  47    -6.0620241990831e-15
  48    -2.2525864596197e-14
  49    -2.2348075592864e-14
  50    -5.3864977132186e-16
  51      0.02122746539118
  52    -8.9993736366384e-16
  53    5.3450189612391e-16
  54     0.035434889089947
  55    5.9658407401255e-15
 Sym= A
 Ene=               9
 Spin= Alpha
 Occup=    0.00000
   1    -0.0054617344360467
   2    -0.042335214220239
   3    -0.087572711006128
   4      -1.2564477168356
   5     -0.15935610474233
   6    -2.0441963875099e-14
   7      0.05579828213491
   8    -0.085707553462677
   9    -9.9307869346939e-15
  10     0.082093204756487
  11      0.44193165536992
  12    2.9882503523989e-14
  13      0.13149763695854
  14    -0.0010699727669655
  15    -0.00078211474085249
  16    1.4017775405733e-15
  17    0.00080981990222168
  18    1.2916617594529e-15
  19    -0.0023736614728778
  20    -0.028084511528297
  21    -4.403225336447e-16
  22    -0.006399784550749
  23    1.0890941436922e-15
  24    0.0019102331315101
  25     0.069882336759341
  26      0.31774709067126
  27       1.3439666254362
  28     -0.16983161094494
  29    -4.2117812103834e-14
  30    -0.025122567150519
  31    -0.084989690151973
  32    -4.017773091978e-14
  33     0.020308685981103
  34       0.9472158049804
  35    1.6715687616563e-13
  36      0.70727006275744
  37    -0.0056605405419578
  38    0.0065849905213635
  39    -8.3969179683178e-16
  40     -0.01124672877286
  41    -3.1101439966015e-15
  42    -0.013901819947749
  43     0.057506974602774
  44    -2.85047786802e-16
  45     0.042357463575382
  46    4.6998940882244e-15
  47    -0.036828904884411
  48     -0.30053093245006
  49     -0.38203880546148
  50     0.016829546707716
  51    4.5955001349694e-16
  52    0.0033977123937363
  53     0.027771027652963
  54    -8.0025080274123e-15
  55     0.052525374156779
 Sym= A
 Ene=              10
 Spin= Alpha
 Occup=    0.00000
   1    -0.019795015579571
   2     -0.21303497047357
   3     -0.59384645013224
   4     -0.71650593198226
   5     0.036237081481363
   6    7.5607727603286e-15
   7      0.62831240836212
   8      0.12825291016053
   9    -1.070744868592e-14
  10      0.45046917884914
  11      0.41386727243166
  12    -3.1473001152108e-14
  13     0.050258431873764
  14     0.023168465847143
  15    -0.00034481116602548
  16    -3.9125236989562e-15
  17    -0.0030648708087964
  18    -4.2139449057348e-17
  19     0.062422337840157
  20     0.027485369683018
  21    -5.3847788070705e-15
  22    -0.014665090756224
  23    2.6336099047936e-15
  24     0.020950240405061
  25      0.23030827867805
  26      0.60816519863674
  27      0.81757609256753
  28      0.29298624656885
  29    6.343727687294e-15
  30      0.55312720596881
  31      0.16172232694421
  32    6.4050647350183e-16
  33       0.5678227394868
  34     -0.31208026284198
  35    1.8670555194585e-14
  36      0.10067713359596
  37    -0.057262180853532
  38    0.0073939476192955
  39    -1.0680793322475e-16
  40     0.011775345919056
  41    -7.3757604515312e-16
  42    -0.056127862014809
  43     0.040517935063308
  44    4.2932635225922e-16
  45     0.021850869090688
  46    8.2446940994035e-15
  47    -0.078025342889547
  48     -0.12240671555055
  49    -0.038955869038028
  50     0.007650405723695
  51    2.7603601091911e-16
  52     0.027646940761662
  53    -0.031028898021571
  54    6.523148666435e-15
  55      0.09257508128532
 Sym= A
 Ene=              11
 Spin= Alpha
 Occup=    0.00000
   1    -0.032496164860562
   2    -0.077653874546379
   3      0.04704658578148
   4      0.63068488847919
   5     -0.42106019022433
   6    -4.8745390355733e-14
   7      -0.1764431327382
   8     0.048478206595096
   9    1.8908490219342e-15
  10     -0.23568662451803
  11      0.97050087060204
  12    2.2180013758674e-13
  13     -0.15265718618887
  14    -0.0061869118313993
  15    -0.012932320529203
  16    6.0661122982967e-15
  17    0.0023815783532352
  18    7.2428594850262e-15
  19    -0.010448633787773
  20    -0.033609887240513
  21    2.794019098754e-15
  22    0.0087535536589223
  23    1.0552318241041e-14
  24    -0.054526968638088
  25      -0.2176756939128
  26     -0.35731885012205
  27      0.49000651452639
  28      0.25325085595512
  29    4.1305443596018e-14
  30     -0.24297088542255
  31    -0.098172572308126
  32    -2.1601058976094e-14
  33     -0.18835258274107
  34     -0.66881566554881
  35    -1.9047739513784e-13
  36    -0.082915376240197
  37    0.00085667585979049
  38    -0.0084340968194012
  39    -3.3487012965998e-15
  40    -0.0044347186480475
  41    3.4018134828729e-15
  42      0.00546237704162
  43      0.04148298826583
  44    1.5911212637616e-14
  45       0.0130096894537
  46    1.5775615929434e-14
  47     -0.15530241037392
  48     -0.42134011958655
  49    -0.012660713663726
  50    -0.028604131053711
  51    -3.1544887447819e-15
  52    0.0010418214913993
  53      -0.1759526240406
  54    -1.9625101369583e-14
  55     0.029912196014875
 Sym= A
 Ene=              12
 Spin= Alpha
 Occup=    0.00000
   1    -0.075008511473327
   2     -0.27938021134526
   3     -0.28754258460463
   4       0.5408305959922
   5      0.12587115155013
   6    -1.3932619542479e-14
   7     -0.13552632084256
   8    -0.064915285302558
   9    3.5765082711954e-15
  10      0.12597946654322
  11      -0.2393783942421
  12    -6.7587696905862e-14
  13     0.015857841067905
  14    -0.018845209739527
  15    0.0032178910234911
  16    -4.9372853125245e-15
  17    -0.010269850066342
  18    -8.2194715137704e-16
  19     -0.03816872678847
  20    -0.027016315492117
  21    -9.1027319002292e-15
  22     0.018414078179435
  23    3.9584867182906e-15
  24    -0.077025745933113
  25     -0.30808418547888
  26      -0.2974669437923
  27     -0.15014701801025
  28     -0.23653337065329
  29    -4.008217428036e-14
  30      0.23848247869423
  31     -0.12764770747346
  32    8.1036058409742e-15
  33      0.20474084409949
  34    -0.043986314153267
  35    7.8212937774205e-14
  36     0.023039513658233
  37    -0.022005092120868
  38     0.013844925256623
  39    1.1544763693393e-14
  40     -0.01832951189594
  41    -8.3866904443046e-15
  42    0.0096706819725313
  43     0.026400889268973
  44    2.2104352697168e-14
  45     0.026219458043354
  46    -3.4513537910869e-15
  47      0.16968803217182
  48      0.87369174647348
  49      0.08891886654113
  50     0.055229459795243
  51    -2.7229066530707e-15
  52    0.0057420112116429
  53      0.11040192045842
  54    3.3976911227504e-14
  55      0.19489279259076
 Sym= A
 Ene=              13
 Spin= Alpha
 Occup=    0.00000
   1     -0.20803423692842
   2     -0.63815712255906
   3     -0.58626827654148
   4       2.1966538798219
   5     0.092877037942728
   6    9.7656925996354e-15
   7     0.023218908647531
   8      0.17674983364971
   9    1.4684494442987e-15
  10      0.28839309307836
  11     -0.34563179463495
  12    5.1946240126468e-15
  13     -0.26049355117208
  14    -0.070910778808042
  15    -0.013422041242055
  16    -1.6080799717018e-14
  17    -0.086622964658843
  18    -1.3711084085086e-14
  19     -0.29076829629063
  20     -0.12794062068921
  21    -7.3499383086877e-16
  22    -0.066517418676858
  23    1.0978075779258e-15
  24      0.19995694429618
  25      0.55420515695064
  26      0.40367160590675
  27      -1.7619862025394
  28      0.15458534542398
  29    -3.1501987097137e-14
  30      0.11997810525133
  31      0.23700566045256
  32    5.0262179859206e-14
  33      0.33162448150005
  34    -0.0041395204459845
  35    -3.7229610825081e-14
  36     -0.36050160798506
  37      0.12034275518039
  38     0.041607570657336
  39    -1.4493174603368e-15
  40      0.12626648851235
  41    1.1690790161252e-14
  42      0.44927498406721
  43     0.096131839232302
  44    -2.0401436750058e-14
  45      0.13622580788828
  46    -5.4107072343484e-16
  47     -0.08342992839367
  48     -0.40587136571537
  49      0.17139182768898
  50    -0.055675784885652
  51    9.9566805636176e-15
  52    -0.018858125854155
  53    -0.0076329108860703
  54     -2.5624844486e-14
  55     -0.31263198352726
 Sym= A
 Ene=              14
 Spin= Alpha
 Occup=    0.00000
   1     -0.16089953531045
   2     -0.32873812767056
   3     -0.20720922243169
   4     -0.67667467705835
   5      0.11843739631288
   6    3.2923529171764e-14
   7       0.2401465736899
   8    -0.045652855379551
   9    1.6292541277673e-13
  10     -0.35482359557798
  11    -0.038988241065405
  12    -6.5184372597178e-14
  13       0.1698239135127
  14     0.059437708214696
  15     0.054063582389756
  16    9.7389382842277e-15
  17     0.010137563526751
  18    2.0836757145895e-14
  19      0.40331384151849
  20      0.22230536510191
  21    2.1318507509924e-15
  22    -0.010434030381439
  23    1.6312956056078e-14
  24     -0.30813736293884
  25     -0.61101909397595
  26      0.33745852925411
  27       -0.181779415505
  28       0.5171004833951
  29    2.9226187374728e-13
  30     -0.67290698352919
  31     -0.62357838079071
  32    -2.6896280065493e-13
  33      0.98824927646715
  34     0.057138294823644
  35    4.9970621955878e-14
  36      0.22915547517896
  37      0.18645156083344
  38     -0.11653691230195
  39    -3.2524063992746e-13
  40      0.84185390060591
  41    1.4535734739988e-13
  42      0.26329011232827
  43      0.22417400051624
  44    -1.7144702662262e-14
  45     -0.24323815736049
  46    -2.4550609200106e-14
  47      -0.2089325122843
  48        1.092850046825
  49     0.099366242878873
  50      0.37296375112478
  51    -6.6472212319043e-14
  52     -0.31823393552296
  53     -0.14879687814847
  54    -1.1392231246092e-13
  55      0.31285423680395
 Sym= A
 Ene=              15
 Spin= Alpha
 Occup=    0.00000
   1      0.45727142090979
   2      0.92381665558088
   3      -2.8608652723676
   4      -1.9895751215098
   5       0.1059629052983
   6    3.5869501758822e-13
   7     -0.27196442198439
   8     0.079887716041093
   9    -6.8906748891579e-13
  10       2.0075537254198
  11      0.31215545579239
  12    1.8435299865518e-13
  13      0.21754815449687
  14     -0.33350185165992
  15     0.094190027709208
  16    4.9142205026008e-14
  17     -0.86663017527893
  18    -2.1140769715103e-13
  19     -0.50994616044118
  20     -0.14409318969174
  21    2.2161206506064e-13
  22      0.13271567119754
  23    -4.130996924222e-14
  24      0.11318576848742
  25      0.27067142191672
  26       2.2786394816417
  27       1.3509300386977
  28      0.23412474292889
  29    -1.6804964917368e-14
  30      0.25451494072493
  31      0.58639715973543
  32    2.9144908805197e-13
  33       1.5649027368095
  34    -0.046661898116746
  35    -4.1000010857226e-13
  36      0.51145458942036
  37    -0.042912237600751
  38    -0.080401930176722
  39    -1.1070538094833e-13
  40      0.19972173193404
  41    -7.6496387573071e-15
  42      0.20207503642737
  43      0.32121538613471
  44    2.9417085894497e-13
  45       0.1388188595216
  46    3.079066946114e-14
  47     -0.14925033435449
  48      0.36088151041991
  49    -0.020478340315437
  50     0.068010566230814
  51    -3.8948667843897e-14
  52    -0.057336094212905
  53     -0.14298338350646
  54    4.0081011829577e-13
  55      0.12054259266218
 Sym= A
 Ene=              16
 Spin= Alpha
 Occup=    0.00000
   1    0.0090909571881693
   2     0.019901978983798
   3    -0.016365366346608
   4      -0.1872789308912
   5    0.0073150431087816
   6     -0.17866838258162
   7    -0.0025479638891311
   8    -0.0077467616932632
   9     -0.32421352887831
  10    -0.00023300391269083
  11     0.014293163382067
  12       2.0812059544509
  13      0.29296189168118
  14    0.0015630987205539
  15    0.0040649820969255
  16     0.017321978814118
  17    -0.0081819914062609
  18    0.0048276992450214
  19    0.0036267790414724
  20    0.00080778659521878
  21    -0.076963561479579
  22    0.00046607533179458
  23    -0.017023701062035
  24    -0.0093764995533727
  25    -0.017892668509613
  26     0.044226897413549
  27      0.27785395331749
  28    0.0028534035752814
  29     0.058894789720402
  30    0.0057813778358416
  31    -0.026967283410791
  32    -0.010409826705054
  33     0.043743997960763
  34     0.078942895518622
  35      -1.5739167043129
  36     -0.16680136957253
  37    -5.3649227179337e-05
  38    -0.0012706739660804
  39    -0.0020180951317282
  40     0.012046101247736
  41    0.0052692947596689
  42    -0.015971734631517
  43    -0.012009254804891
  44     -0.11567881364042
  45    -0.0083025577710065
  46    -0.049340452651356
  47    -0.0036553027605505
  48     0.059885076244245
  49    -0.089846000976976
  50     0.009919747447451
  51     0.001524692367045
  52    -0.0058354032845675
  53    -0.024013579983054
  54       0.1136939313598
  55     0.065280422890517
 Sym= A
 Ene=              17