[Molden Format]
made by pyscf v[2.13.1]
[Atoms] (AU)
C   1   6     0.00000000000000     1.26026583578789     0.00000000000000
C   2   6     0.00000000000000    -1.26026583578789     0.00000000000000
H   3   1     0.00000000000000     2.32345974964118     1.74287671684983
H   4   1     0.00000000000000    -2.32345974964118     1.74287671684983
H   5   1     0.00000000000000     2.32345974964118    -1.74287671684983
H   6   1     0.00000000000000    -2.32345974964118    -1.74287671684983
[GTO]
1 0
 s    8 1.00
                  6665  0.00069158396281299
                  1000  0.0053257961529341
                   228   0.027060721042034
                 64.71    0.10165684614077
                 21.06     0.2745748236174
                 7.495    0.44829431892377
                 2.797    0.28490261071525
                0.5215   0.015194859206082
 s    8 1.00
                  6665  -0.00029326965268655
                  1000  -0.0023180354739745
                   228  -0.011499786038565
                 64.71  -0.046826727009787
                 21.06   -0.12846616875047
                 7.495   -0.30126627246289
                 2.797   -0.25563070233011
                0.5215      1.093793361012
 s    1 1.00
                0.1596                   1
 s    1 1.00
                0.0469                   1
 p    3 1.00
                 9.439   0.056979251590039
                 2.002    0.31320721150073
                0.5456    0.76037674173753
 p    1 1.00
                0.1517                   1
 p    1 1.00
               0.04041                   1
 d    1 1.00
                  0.55                   1
 d    1 1.00
                 0.151                   1

2 0
 s    8 1.00
                  6665  0.00069158396281299
                  1000  0.0053257961529341
                   228   0.027060721042034
                 64.71    0.10165684614077
                 21.06     0.2745748236174
                 7.495    0.44829431892377
                 2.797    0.28490261071525
                0.5215   0.015194859206082
 s    8 1.00
                  6665  -0.00029326965268655
                  1000  -0.0023180354739745
                   228  -0.011499786038565
                 64.71  -0.046826727009787
                 21.06   -0.12846616875047
                 7.495   -0.30126627246289
                 2.797   -0.25563070233011
                0.5215      1.093793361012
 s    1 1.00
                0.1596                   1
 s    1 1.00
                0.0469                   1
 p    3 1.00
                 9.439   0.056979251590039
                 2.002    0.31320721150073
                0.5456    0.76037674173753
 p    1 1.00
                0.1517                   1
 p    1 1.00
               0.04041                   1
 d    1 1.00
                  0.55                   1
 d    1 1.00
                 0.151                   1

3 0
 s    3 1.00
                 13.01   0.033498726389998
                 1.962    0.23480080117413
                0.4446     0.8136829578829
 s    1 1.00
                 0.122                   1
 s    1 1.00
               0.02974                   1
 p    1 1.00
                 0.727                   1
 p    1 1.00
                 0.141                   1

4 0
 s    3 1.00
                 13.01   0.033498726389998
                 1.962    0.23480080117413
                0.4446     0.8136829578829
 s    1 1.00
                 0.122                   1
 s    1 1.00
               0.02974                   1
 p    1 1.00
                 0.727                   1
 p    1 1.00
                 0.141                   1

5 0
 s    3 1.00
                 13.01   0.033498726389998
                 1.962    0.23480080117413
                0.4446     0.8136829578829
 s    1 1.00
                 0.122                   1
 s    1 1.00
               0.02974                   1
 p    1 1.00
                 0.727                   1
 p    1 1.00
                 0.141                   1

6 0
 s    3 1.00
                 13.01   0.033498726389998
                 1.962    0.23480080117413
                0.4446     0.8136829578829
 s    1 1.00
                 0.122                   1
 s    1 1.00
               0.02974                   1
 p    1 1.00
                 0.727                   1
 p    1 1.00
                 0.141                   1

[5d]
[7f]
[9g]

[MO]
 Sym= A
 Ene=               0
 Spin= Alpha
 Occup=    1.00000
   1     -0.70945771081538
   2    -0.0050266476518039
   3      0.01581650960502
   4    0.0047725272213896
   5    6.4793923624009e-15
   6    0.00049421175052048
   7    -4.9081522842757e-10
   8    -1.0525807506898e-14
   9    0.0026455909435904
  10    1.4126464990502e-09
  11    -6.4061093210206e-17
  12    0.00078283664044536
  13    3.6894648652961e-11
  14    -0.00010678479430371
  15    1.075469864179e-16
  16    -1.8457211736045e-10
  17    0.00032293770361546
  18    -1.711551161675e-15
  19    -0.00032217189754564
  20    3.5453172804686e-17
  21    1.1118896414533e-10
  22    -0.0017838776608876
  23    3.7410206648309e-15
  24     -0.70945778500519
  25    -0.0050266482197229
  26     0.015816513023535
  27    0.0047725288999707
  28    -5.7825742431663e-15
  29    -0.00049421179536222
  30    -1.990815864699e-09
  31    9.5506955677356e-15
  32    -0.0026455897453673
  33    2.8094070543103e-09
  34    2.1174035933513e-16
  35    -0.00078283630302578
  36    9.0263612048326e-10
  37    -0.00010678480006708
  38    7.816743211223e-18
  39    6.5137685007521e-10
  40    0.00032293777380344
  41    -1.9079454887688e-15
  42    -0.00032217201829822
  43    -2.8528431077906e-17
  44    -1.0082874162075e-09
  45    -0.0017838779739745
  46    3.7164077688816e-15
  47    -0.00019150495551724
  48    -0.0077942195193014
  49    -0.00086006002650003
  50    -2.9663844527002e-16
  51    -7.685163317105e-05
  52    -0.00014755887290246
  53    1.250468384816e-15
  54    0.00080116080054009
  55    0.0024870563725922
  56    -0.00019150478879844
  57    -0.0077942228252679
  58    -0.00086006048619043
  59    2.2120922108188e-16
  60    7.6851898116933e-05
  61    -0.00014755925755816
  62    -1.0351184720993e-15
  63    -0.00080116123569772
  64    0.0024870572268695
  65    -0.00019150558541087
  66    -0.0077942172675088
  67    -0.00086005925588713
  68    -2.5929707543213e-16
  69    -7.6851391474278e-05
  70    0.00014755840793861
  71     1.26002203938e-15
  72    0.00080116048884592
  73    -0.0024870556441206
  74    -0.00019150580699311
  75    -0.0077942146833258
  76    -0.00086005876285116
  77    1.7759329203964e-16
  78    7.6851141545146e-05
  79    0.00014755806571795
  80    -1.0441856907144e-15
  81    -0.00080116014952422
  82    -0.0024870549976387
 Sym= A
 Ene=               1
 Spin= Alpha
 Occup=    1.00000
   1     -0.70999005356933
   2    -0.0054234544598225
   3     0.032787834068935
   4     0.016082103053677
   5    3.1973178820992e-15
   6    0.00040115965539279
   7    -3.9819926852272e-10
   8    -6.3599694251321e-15
   9    -0.011514104889116
  10    2.6757643267207e-09
  11    1.7322286907173e-16
  12    -0.0032333708805633
  13    9.0067106803072e-10
  14    -6.0781402536765e-05
  15    -1.0446676337006e-16
  16    -7.3266959680889e-11
  17    0.00065798337620092
  18    2.819396447325e-16
  19    -0.0011611113283614
  20    -3.6789133599328e-17
  21    -1.2060985746132e-10
  22    -0.0030001700450168
  23    -4.42077411759e-16
  24      0.70998997943579
  25       0.0054234539347
  26    -0.032787832414795
  27      -0.0160821025554
  28    2.338667641086e-15
  29    0.00040115960698046
  30    1.4392982504906e-09
  31    -3.9418568591303e-15
  32    -0.011514105167784
  33    -4.7519080129231e-09
  34    5.0580674522287e-16
  35    -0.0032333709623629
  36    -1.4977495463745e-09
  37    6.0781391529222e-05
  38    -6.1814625050814e-18
  39    -6.4964068863089e-10
  40    -0.00065798334226967
  41    -2.9629339609851e-16
  42    0.0011611112955897
  43    2.8179218904396e-17
  44    4.4790434587955e-10
  45    0.0030001698596448
  46    1.2445414493523e-15
  47    -0.00026097912659099
  48    -0.0034507599403108
  49     0.000159543404948
  50    -4.6219408914337e-16
  51    -7.2687039182566e-05
  52    -0.00020284491983988
  53    1.4050614887611e-15
  54    0.00046098667088037
  55    0.00099427300968408
  56    0.00026097862511982
  57    0.0034507616175715
  58    -0.00015954194515088
  59    -4.2614750335861e-16
  60    -7.2687324337069e-05
  61    0.00020284531894051
  62    1.1267145418987e-15
  63    0.00046098689592895
  64    -0.00099427336598102
  65    -0.00026097995984232
  66    -0.003450755235973
  67    0.0001595433265692
  68    -4.9820794383222e-16
  69    -7.2686902871343e-05
  70     0.000202844574141
  71    1.3971911923546e-15
  72    0.00046098547807609
  73    -0.00099427176906691
  74    0.00026098042116021
  75    0.0034507519282603
  76    -0.00015954496587517
  77    -3.8241086368585e-16
  78    -7.2686601434598e-05
  79    -0.00020284414362149
  80    1.1370472251565e-15
  81    0.00046098508541676
  82    0.00099427089291082
 Sym= A
 Ene=               2
 Spin= Alpha
 Occup=    1.00000
   1    -0.021982518395409
   2      0.29250900358796
   3      0.11609919555804
   4    -0.013412489022611
   5    -5.163912914584e-14
   6    -0.030805367099198
   7    -6.8580224403093e-08
   8    -8.1577105802436e-14
   9    -0.021879037454856
  10    -1.3736766041128e-08
  11    -8.6894976166049e-14
  12    0.0032744565625222
  13    1.3175029385967e-08
  14    -0.0043854104857485
  15    -4.1977225213138e-17
  16    -3.2056911175338e-09
  17     -0.01496327948902
  18    -8.4621646178755e-15
  19    -0.025182022259579
  20    6.5986601936079e-17
  21    2.1798236029743e-08
  22    -0.015244101510977
  23    -4.2016222359374e-15
  24    -0.021982518452501
  25      0.29250900351081
  26      0.11609919629341
  27    -0.013412488763314
  28    7.864075413067e-14
  29     0.030805367029139
  30    -3.5422533792699e-08
  31    9.7535847849049e-14
  32     0.021879037824258
  33    2.5108967225777e-08
  34    8.8627104054708e-14
  35    -0.0032744565238584
  36    1.637369384227e-09
  37    -0.0043854104635744
  38    -1.1069400041519e-17
  39    1.4315765693291e-09
  40    -0.014963279474306
  41    -9.7202629319073e-15
  42    -0.025182022318463
  43    5.2456306247061e-17
  44    1.6146954634043e-09
  45    -0.015244101598458
  46    -1.8947710071866e-15
  47      0.14744761789132
  48     0.053211119097176
  49    0.0034588689897232
  50    -4.6734551350225e-15
  51     -0.01108086088097
  52    -0.016443846476721
  53    -2.2232764909602e-15
  54    -0.013299833589406
  55    -0.0033613633355296
  56       0.1474476536202
  57      0.05321114515214
  58    0.0034588742426719
  59    5.4815784479538e-15
  60     0.011080861827862
  61    -0.016443849767059
  62    3.8565609448474e-15
  63     0.013299830375352
  64    -0.0033613662181917
  65      0.14744770823861
  66     0.053211199470248
  67    0.0034589392441265
  68    -4.6480778911219e-15
  69    -0.011080862467199
  70     0.016443852346775
  71    -2.2667776570368e-15
  72    -0.013299829821838
  73    0.0033613800115193
  74      0.14744767259968
  75      0.05321117349336
  76    0.0034589339757391
  77    5.4819331861826e-15
  78     0.011080861510557
  79     0.016443849058959
  80    3.9146959007558e-15
  81     0.013299833068182
  82    0.0033613771120434
 Sym= A
 Ene=               3
 Spin= Alpha
 Occup=    1.00000
   1    -0.011889375607201
   2      0.24639339567291
   3      0.34861979313786
   4     -0.28765393185974
   5    7.8083037746532e-14
   6      0.15630865552075
   7    5.7319037116082e-08
   8    2.2719003280776e-14
   9     -0.14809665656964
  10    2.5378217076263e-08
  11    -1.7050439284531e-16
  12     0.066295618583278
  13    -3.5307744800366e-08
  14     0.013835609420813
  15    3.6376403180391e-17
  16    5.3970637250474e-09
  17    0.0058793873630771
  18    -7.3000935548754e-15
  19    -0.080527350583214
  20    -6.3095365636812e-17
  21    -1.0926586811288e-08
  22    -0.030143191085285
  23    -1.0202441442824e-14
  24      0.01188937565336
  25     -0.24639339549508
  26     -0.34861979336871
  27      0.28765393175849
  28    8.3544998522028e-14
  29      0.15630865546249
  30    -3.6381087270652e-08
  31    2.6710918484364e-14
  32     -0.14809665650085
  33    -9.5062913557676e-09
  34    -5.1945984025509e-15
  35     0.066295618605852
  36    3.0342975800811e-08
  37    -0.013835609419788
  38    -1.9171676842675e-17
  39    8.8668277026497e-09
  40    -0.0058793873777676
  41    3.8965477515682e-15
  42      0.08052735058036
  43    5.8793424575479e-17
  44    -7.7563654909886e-09
  45     0.030143191114421
  46    1.0488760431975e-14
  47      0.20233505307859
  48      0.15610272710084
  49    -0.0093859787715825
  50    -5.3881189151717e-15
  51    -0.008802003847276
  52    -0.019222093679481
  53    1.8744061872901e-14
  54    -0.033708103596707
  55    -0.0075900040099391
  56     -0.20233504769761
  57     -0.15610273197889
  58    0.0093859931532165
  59    -4.9786940589114e-15
  60    -0.0088020033650279
  61     0.019222095614718
  62    1.6799548180758e-14
  63    -0.033708107410581
  64    0.0075900034577021
  65       0.2023349493977
  66      0.15610262799055
  67    -0.0093860274042106
  68    -5.3686575731661e-15
  69    -0.0088019972239749
  70      0.01922209349055
  71    1.8634667451772e-14
  72    -0.033708102110391
  73    0.0075899951122426
  74       -0.202334954729
  75     -0.15610262283426
  76    0.0093860130529264
  77    -4.9594763346771e-15
  78    -0.0088019977093987
  79    -0.019222091552354
  80    1.6749391754676e-14
  81     -0.03370809828139
  82    -0.0075899955639918
 Sym= A
 Ene=               4
 Spin= Alpha
 Occup=    1.00000
   1    5.4947953050472e-08
   2    9.0286356931489e-08
   3    -1.4421137666304e-06
   4    -9.6435087938112e-07
   5    -5.6748031219811e-17
   6    -1.3426971600225e-07
   7     -0.32127219758266
   8    1.1595636451181e-16
   9    6.4594359313642e-07
  10    -0.049095971534578
  11    -1.5175012021698e-16
  12    -6.614777201813e-08
  13     0.014411803027667
  14    -4.3844991109866e-08
  15    2.8197829127423e-14
  16    0.0017600505208588
  17    1.2221382345919e-08
  18    -9.6494178679277e-17
  19    9.264405113634e-08
  20    -4.4853187686714e-14
  21     0.043068281894664
  22    1.7163836692227e-07
  23    -2.7780995454578e-16
  24    -7.9188908448106e-08
  25    -1.5894870914475e-07
  26    1.8940296520918e-06
  27    1.0856294427352e-06
  28    3.9211048532773e-17
  29    1.4552789584639e-07
  30      -0.3212721991494
  31    -4.0642403586903e-16
  32    6.5418057528197e-07
  33    -0.049095972149809
  34    2.5040996197057e-16
  35    -2.9136848848304e-08
  36     0.014411803419251
  37    -1.404757348745e-08
  38    -2.0633827271358e-14
  39    -0.0017600503426061
  40    -1.948062765769e-08
  41    3.2052104644788e-17
  42    -2.4926604678244e-08
  43    4.4869948732254e-14
  44    -0.043068282431035
  45    -1.5788832534863e-07
  46    -1.7731834409669e-16
  47     -0.21605800127873
  48     -0.13688888423157
  49    -0.025930005070445
  50    -2.0057754275687e-15
  51     0.010391640890499
  52     0.010741267632853
  53    2.7670180449613e-14
  54    -0.0023816132783772
  55     0.023616509356917
  56      -0.2160580777727
  57     -0.13688939598076
  58    -0.025930456712692
  59    8.859032663066e-16
  60     -0.01039168668488
  61     0.010741293797393
  62    -2.6656892959028e-14
  63    0.0023815645006164
  64     0.023616642215841
  65      0.21605792719023
  66      0.13688904043925
  67     0.025930485200843
  68    2.0162450092837e-15
  69    -0.010391702552977
  70      0.01074129631996
  71    -2.7563590372679e-14
  72    0.0023816670946228
  73     0.023616586703225
  74      0.21605785344695
  75      0.13688853196031
  76     0.025930034159313
  77    -9.1903887557908e-16
  78     0.010391656874004
  79      0.01074127024185
  80    2.6795872421412e-14
  81    -0.0023817157140507
  82     0.023616454476128
 Sym= A
 Ene=               5
 Spin= Alpha
 Occup=    1.00000
   1    -8.8259412448732e-09
   2    2.7587126240358e-08
   3    2.3034319970872e-07
   4    1.2725136706198e-08
   5    4.1963050679086e-15
   6    2.325879858898e-08
   7     -0.31246495524946
   8    2.6940770308772e-15
   9    -2.8151450013484e-09
  10    -0.090544291267282
  11    1.8271477313686e-16
  12    2.1471476057666e-08
  13     0.093311222837994
  14    -8.4581198495717e-09
  15    4.8627267194453e-14
  16    -0.039412753519533
  17    -3.1237271182066e-10
  18    -3.4025333537185e-16
  19    -2.1546238467672e-08
  20    -4.3035237972978e-14
  21     0.097208024963179
  22    -7.0851652337163e-09
  23    -4.3812313079103e-16
  24    -3.1827679813173e-08
  25    -1.5348569949536e-07
  26    1.4058361508542e-07
  27    1.6820984204429e-07
  28    4.0250036280428e-15
  29    4.5461059641856e-08
  30      0.31246495350868
  31    2.5796994502654e-15
  32    -9.5648095866477e-08
  33     0.090544291176974
  34    4.7771534229456e-16
  35    -1.0500474443771e-08
  36    -0.093311222674837
  37    1.0410316228557e-08
  38    4.2208821844611e-14
  39    -0.039412753461232
  40    4.6722411966876e-09
  41    2.7281650495744e-16
  42    3.6897237064511e-08
  43    -4.2738558794924e-14
  44      0.09720802468648
  45    -1.011110009506e-08
  46    5.6292907009721e-17
  47     -0.26019645348796
  48      -0.3201430085812
  49    -0.066128688361233
  50    -1.6042523489044e-14
  51     0.011259548721497
  52     0.007263804821356
  53    3.5082126263006e-14
  54     0.018247595694215
  55     0.060677864121965
  56      0.26019644220919
  57      0.32014277785556
  58     0.066128650788777
  59    -1.5745349052506e-14
  60     0.011259549927655
  61    -0.0072638108110558
  62    3.6456033134779e-14
  63     0.018247558680821
  64    -0.060677790303077
  65      0.26019648846702
  66      0.32014285648761
  67     0.066128669970248
  68    1.6382907487009e-14
  69    -0.011259550762559
  70    0.0072638173456855
  71    -3.4903740414738e-14
  72    -0.018247583710355
  73     0.060677827531594
  74     -0.26019649742612
  75     -0.32014308552248
  76    -0.066128706965062
  77    1.6093437416497e-14
  78    -0.011259549454856
  79    -0.0072638112447063
  80    -3.6211561878888e-14
  81    -0.018247620756396
  82    -0.060677901053802
 Sym= A
 Ene=               6
 Spin= Alpha
 Occup=    1.00000
   1    -0.0012265614644236
   2     0.085975113822417
   3      0.13986340019135
   4     0.016123863622558
   5    3.0404940252116e-14
   6     -0.43369403786201
   7    1.2815148917594e-07
   8    8.621484202581e-14
   9     -0.11520632720159
  10    9.3777665434184e-09
  11    -4.3125037780486e-14
  12    -0.0032655495043505
  13    -3.3536706709725e-08
  14    -0.023867258934612
  15    -1.0184950957479e-16
  16    -8.8145197711176e-09
  17    -0.015217993300568
  18    6.147681062759e-14
  19     0.040089286998998
  20    -6.3064429670286e-17
  21    -1.6640162162397e-08
  22     0.026452198004091
  23    -8.3331438490124e-14
  24    -0.0012265614990425
  25     0.085975113744922
  26      0.13986340109314
  27     0.016123863732765
  28    -3.9647279350452e-14
  29      0.43369403785928
  30    1.2277186815534e-07
  31    -8.3618429771473e-14
  32      0.11520632796058
  33    6.5618009065001e-08
  34    4.5048890602335e-14
  35    0.0032655495555848
  36    2.794695359271e-08
  37    -0.023867258920863
  38    -1.0205985334051e-16
  39    2.3253566771412e-08
  40    -0.015217993290878
  41    4.5635082248133e-14
  42     0.040089286877359
  43    7.137561475533e-18
  44    2.0876902912944e-08
  45     0.026452197873411
  46    -8.2124770367553e-14
  47      -0.1441854751432
  48     -0.11273925910238
  49    -0.0029884573012273
  50    -8.5805683925433e-15
  51    -0.0052273818980068
  52    0.0097531971462971
  53    1.513645544569e-14
  54     0.032792701619442
  55    0.0051491485047825
  56     -0.14418547690677
  57     -0.11273931240104
  58    -0.0029884934138384
  59     9.51202936137e-15
  60    0.0052273813297034
  61    0.0097531955290426
  62    -1.3204206093429e-14
  63    -0.032792712976447
  64    0.0051491593832451
  65      -0.1441856089595
  66     -0.11273933681857
  67    -0.0029885070867517
  68    -8.5582159230979e-15
  69    -0.0052273742372132
  70    -0.0097532065055081
  71    1.4902553456123e-14
  72     0.032792708664949
  73    -0.0051491825885035
  74     -0.14418560717406
  75     -0.11273928314359
  76    -0.0029884709651355
  77    9.5638329763949e-15
  78    0.0052273748053067
  79    -0.0097532081185913
  80    -1.3144194208506e-14
  81    -0.032792697274113
  82    -0.0051491716506322
 Sym= A
 Ene=               7
 Spin= Alpha
 Occup=    1.00000
   1    1.0299123617183e-13
   2    1.9322095805721e-13
   3    -6.8581809113555e-13
   4    -3.2352795777652e-12
   5      0.39657380795714
   6    1.795386224139e-13
   7    3.4348421814138e-15
   8      0.25751441951263
   9    -4.9787932847949e-13
  10    -1.1228679719202e-16
  11     0.021077984275076
  12    7.3309838223769e-13
  13    -9.6863855899537e-16
  14    1.7363130448941e-13
  15    1.2212129094325e-08
  16    5.0232395396793e-16
  17    -8.6962585722395e-15
  18    -0.032140733418697
  19    -1.8250775224957e-13
  20    5.9386711811199e-09
  21    -1.1144011591206e-15
  22    -3.1375456398034e-14
  23    -0.0068807988804875
  24    -9.2230014227703e-14
  25    -1.9349587773032e-13
  26    5.8949258591518e-13
  27    3.1747817736679e-12
  28      0.39657380783034
  29    1.7849132369353e-13
  30    -3.2641027802507e-15
  31      0.25751441954884
  32    -4.7863224074112e-13
  33    -6.80384984088e-16
  34      0.02107798466568
  35    7.4979705131596e-13
  36    9.6233832834876e-16
  37    -1.651065733183e-13
  38    2.1658716197553e-08
  39    2.7470201782372e-16
  40    -3.2423241708718e-15
  41     0.032140733425838
  42    1.8920882483529e-13
  43    -1.5135504748249e-08
  44    -9.3225246271753e-16
  45    4.2521838715725e-14
  46    0.0068807988623559
  47    -1.8751905388946e-13
  48    8.4121676029704e-13
  49    -3.154656967866e-14
  50     0.015406046977882
  51    7.9954264958983e-14
  52     8.14926058367e-14
  53    0.0061881928843794
  54    -2.4301320557543e-13
  55    -1.684227671929e-13
  56    1.7954159167112e-13
  57    -7.8893086576311e-13
  58    4.1030699808659e-14
  59      0.01540604835603
  60    8.1289003360716e-14
  61    -8.0080134843559e-14
  62    0.0061882047494452
  63    -2.3511757606987e-13
  64    1.5076768523887e-13
  65    -1.9308989110088e-13
  66    8.3216086055178e-13
  67    -3.273415088697e-14
  68     0.015406054467063
  69    8.0159991522402e-14
  70    -8.1693631597098e-14
  71    0.0061881694699648
  72    -2.4210769956928e-13
  73    1.6682963038981e-13
  74    1.8551414349837e-13
  75    -7.8161595034035e-13
  76    4.4320700397545e-14
  77     0.015406053093264
  78    8.1591761230924e-14
  79    8.0342559762109e-14
  80    0.0061881575784253
  81    -2.3486182528414e-13
  82    -1.4934893222016e-13
 Sym= A
 Ene=               8
 Spin= Alpha
 Occup=    0.00000
   1    -1.1182500394025e-11
   2    -2.2715132497465e-11
   3    1.2450360610619e-10
   4    6.9173584592308e-11
   5      0.39381470237843
   6    -5.1373939593991e-12
   7    -9.6311133611275e-15
   8      0.41954414245406
   9    1.4343015299826e-11
  10    -9.4041225930784e-15
  11      0.46990677066187
  12    -3.9792012363917e-12
  13    -2.4353055305809e-14
  14    -7.1782599486929e-12
  15    2.8096833769794e-09
  16    7.466379905317e-16
  17    2.5490483157914e-13
  18     0.030838652108755
  19    1.5718524409542e-11
  20    -4.581836465684e-09
  21    5.4244387283471e-16
  22    -4.8326165433972e-13
  23     0.028321655586529
  24    -9.9058066994995e-12
  25    -2.0468121085437e-11
  26     9.49857439134e-11
  27    5.0457321712615e-11
  28     -0.39381470227465
  29    5.3604571756989e-12
  30    -1.1136118042984e-14
  31     -0.41954414263397
  32    -2.7111515693796e-11
  33    -1.6076031360951e-14
  34     -0.46990677075288
  35    2.4823193969464e-12
  36    -2.0605256615292e-14
  37    -7.673929162677e-12
  38    -2.7348616787273e-09
  39    -1.001158224938e-15
  40    4.3765052698185e-13
  41     0.030838651923548
  42    1.7005817368652e-11
  43    1.0443076639837e-08
  44    -2.2629972017167e-15
  45    2.3830536393153e-12
  46     0.028321655685791
  47    3.2292892008914e-12
  48    -7.0585339670853e-11
  49    -1.469136273982e-11
  50     0.018634706092458
  51    -5.3411947168441e-12
  52    -4.4179223611519e-12
  53     0.036219787902926
  54    2.1208946881604e-11
  55    1.6094097183858e-11
  56    3.7986278211491e-12
  57    -6.7575465478132e-11
  58    -1.2464953254097e-11
  59    -0.018634706436269
  60    5.7676323367465e-12
  61    -4.6444637895305e-12
  62    -0.036219784716845
  63    -2.1037572268639e-11
  64    1.5183910668501e-11
  65    3.2290833751653e-12
  66    -7.060817156911e-11
  67    -1.4883371629349e-11
  68     0.018634707262561
  69    -5.3419986377346e-12
  70    4.4188224927817e-12
  71     0.036219812509371
  72    2.121307825366e-11
  73    -1.6093641040283e-11
  74    3.7990057337845e-12
  75    -6.7609377380053e-11
  76    -1.2664543965403e-11
  77     -0.01863470688578
  78    5.7685860268573e-12
  79    4.6458659652656e-12
  80    -0.036219815457326
  81    -2.104351967015e-11
  82    -1.5185110338003e-11
 Sym= A
 Ene=               9
 Spin= Alpha
 Occup=    0.00000
   1     0.087390680775168
   2      0.39882308126915
   3       1.2655671794147
   4      0.16767551114901
   5    6.1530044067359e-13
   6     -0.83934568431905
   7    2.4005441264683e-07
   8    -3.9241587285112e-13
   9      -1.0112214007472
  10    5.9114169597999e-08
  11    4.8774850192674e-13
  12    -0.065589233756893
  13    1.163025418159e-07
  14    0.0016548810828309
  15    5.2328039899715e-16
  16    6.8115855480386e-08
  17        0.027189032354
  18    3.6574786450565e-13
  19      -0.0564961510555
  20    -6.5717370616166e-16
  21    -1.0973531911163e-07
  22     -0.06482403168159
  23    5.1679822656697e-13
  24    -0.087390680951458
  25     -0.39882308174421
  26      -1.2655671773522
  27     -0.16767551037101
  28    1.4238874769536e-12
  29     -0.83934568425693
  30    -4.1124273302679e-07
  31    -6.1070852134327e-13
  32       -1.011221401443
  33    2.2581849368573e-07
  34    -6.5354544390836e-13
  35    -0.065589234149921
  36    -6.958775590387e-08
  37    -0.0016548809198799
  38    -3.3030797500471e-16
  39    1.2101218176415e-07
  40    -0.027189032070761
  41    -3.0253045652776e-13
  42     0.056496150953194
  43    1.1331561015358e-15
  44    -4.7042139454721e-08
  45     0.064824031689648
  46    -4.3457434439831e-13
  47    -0.015205952392989
  48      0.27574552822536
  49     0.018982069731586
  50    -4.3018885427761e-14
  51    -0.0095553239217153
  52     0.017720097983653
  53    6.587900523068e-14
  54    -0.020138476137097
  55    -0.061646523667959
  56     0.015205907635183
  57     -0.27574572640161
  58     -0.01898207713473
  59    -5.204063408669e-14
  60    -0.0095553377916987
  61    -0.017720077398786
  62    -6.2067845584889e-14
  63    -0.020138542457179
  64     0.061646621731061
  65    -0.015205640057588
  66      0.27574569294883
  67     0.018982160684676
  68    -4.4212407346617e-14
  69    -0.0095553841902643
  70    -0.017720036317246
  71    6.5354010092567e-14
  72    -0.020138526385396
  73     0.061646560036607
  74     0.015205684525479
  75     -0.27574549662348
  76    -0.018982153508559
  77    -5.0620047840543e-14
  78    -0.0095553704434105
  79     0.017720056670487
  80    -6.1439493848129e-14
  81     -0.02013845999453
  82    -0.061646462870904
 Sym= A
 Ene=              10
 Spin= Alpha
 Occup=    0.00000
   1    8.0951116525615e-06
   2    1.4198522747048e-05
   3    -0.0002215186499382
   4    -0.00013678289802219
   5    -3.4842198779729e-14
   6    -1.1345527143687e-06
   7     -0.15138822276021
   8    -2.3316741750204e-14
   9    0.00011054594107853
  10     -0.20902068442415
  11    -2.5225080725803e-14
  12    3.8689713166137e-06
  13     -0.27873606644769
  14    -5.1555659662079e-06
  15    -5.4730986184095e-15
  16     0.011194272699581
  17    2.0427818375873e-06
  18    2.1735448008947e-15
  19    1.4315598095457e-05
  20    -3.4157309933437e-15
  21    0.0084130379586723
  22    2.4624704811296e-05
  23    -1.5560206376832e-14
  24    -1.3438602810169e-05
  25    -2.4072189791451e-05
  26    0.0002873218903416
  27    0.00019029733179068
  28    2.3768269301143e-14
  29    1.0784175813427e-07
  30     -0.15138822251378
  31    2.6274141978052e-14
  32    9.6365842544105e-05
  33     -0.20902068423748
  34    2.9722965383485e-14
  35    8.5312414089659e-07
  36      -0.2787360669909
  37    1.7786229264337e-06
  38    -5.2702961017817e-15
  39    -0.011194272758164
  40    -1.7419944728646e-06
  41    -5.0313777400297e-15
  42    -5.9939055482962e-06
  43    3.6438940414225e-15
  44    -0.0084130381972199
  45    -2.5155821035328e-05
  46    1.1336346839524e-15
  47    -0.00090199013325091
  48      0.23548517929921
  49       1.3145977281723
  50     2.11641052418e-15
  51    0.0052811517782997
  52     0.008391522190585
  53    2.1246546877513e-15
  54    -0.044950300239762
  55       -0.012465494241
  56    -0.00091093945010499
  57      0.23541949862257
  58       1.3145384260561
  59    6.3203249554678e-15
  60    -0.0052881709301644
  61    0.0083950764131429
  62    -2.2753582689125e-14
  63     0.044945129183775
  64    -0.012446284012034
  65    0.00091228481213677
  66     -0.23546302466966
  67      -1.3145571429959
  68    -2.7954434143989e-15
  69    -0.0052907301598672
  70    0.0083972856306209
  71    -6.4604770822877e-15
  72     0.044956392720298
  73    -0.012456269655861