   This run of MOLCAS is using the pymolcas driver

                             OPE
                             OPE          NMOL  CASOP  ENMOLC A   SO
                 OPE        NMOLC        AS  OP EN  MO LC     AS  OP
                OPENM       OL CA        SO  PE NM  OL CA     SOP EN
                OP EN      MO   LC       AS  OP ENMOL  CASO   PENMOL
                OP  EN     MO   LC       AS  OP EN     MO     LC ASO
               OP   E  NMOL  C  AS       OP  EN MO     LC     AS  OP
               OP  E   NMO   LC AS        OPEN  MO     LCASOP EN   M
               O  PEN   MO  LCA  SO
            OPE   NMO   L   CAS    OP
        OPENMOL  CASOP     ENMOL   CASOPE
     OPENMOLCA   SOPENMOLCASOPEN   MOLCASOPE
    OPENMOLCAS   OP           EN   MOL    CAS
    OPENMOLCAS       OP  ENM        O     LCA
    OPENMOLCAS    OPEN  MOLCASO     P  E  NMO
    OPENMOLCAS     OP               E  N  MOL
    OPENMOLCA   SO           PENM   O  L  CAS    OPEN    MO    LCAS
    OPENMOLCA   SOP           ENM   O  L  CAS   OP  EN  MOLC  AS   O
    OPENMOLCA   SOPE           NM      O  LCA   S      OP  EN MO
    OPENMOLC                AS         O  PEN   M      OL  CA  SOPE
    OPENMO        LCASOPE  NMOL        C  ASO   P      ENMOLC     AS
    OPE     NMO      LCA  SO     P     E   NM   OL  CA SO  PE N   MO
          OPENMOLCA            SOPE   NMO        LCAS  O    P  ENMO
     OPENMOLCASOPENMOLCASOPENMOLCASOPENMOLCA
        OPENMOLCASOPENMOLCASOPENMOLCASOPE
            OPENMOLCASOPENMOLCASOPENM
               OPENMOLCASOPENMOLCA        version: 26.02
                   OPENMOLCASO
                       OPE                tag: 684-gcd9c692f8

 OpenMolcas is free software; you can redistribute it and/or modify it
 under the terms of the GNU Lesser General Public License version 2.1.
 OpenMolcas is distributed in the hope that it will be useful, but it
 is provided "as is" and without any express or implied warranties.
 For more details see the full text of the license in the file
 LICENSE or in <http://www.gnu.org/licenses/>.

                 Copyright (C) The OpenMolcas Authors
           For the author list and the recommended citation,
                   consult the file CONTRIBUTORS.md

           *************************************************
           * pymolcas version py2.32                       *
           *   build 5fe1e42a8a423461f97be6f8128d9c45      *
           *   (after the EMIL interpreter by V. Veryazov) *
           *************************************************

configuration info
------------------
Host name: cpn-d01-33.core.ccr.buffalo.edu (Linux)
C Compiler ID: Intel
C flags: -std=gnu99 -gcc-sys
Fortran Compiler ID: Intel
Fortran flags: -fpp -i8 -heap-arrays
Definitions: _MOLCAS_;_I8_;_LINUX_;_MOLCAS_MPP_;_SCALAPACK_;_GA_
Parallel: ON (GA=ON)


   ----------------------------------------------------------------------------------------------------------------------------------------------------------------------------------------------
  |
  |           Project: 03_Ethylene_Geom_S1_CASPT2
  |    Submitted from: /vscratch/grp-cyberwksp21/sbakenhaster/wed_7_8/openmolcas_pyspawn/Tutorials_OpenMolcas/03_S1_Optimization_CASPT2
  |      Scratch area: /vscratch/grp-cyberwksp21/sbakenhaster/wed_7_8/openmolcas_pyspawn/Tutorials_OpenMolcas/03_S1_Optimization_CASPT2/scr_03_Ethylene_Geom_S1_CASPT2/03_Ethylene_Geom_S1_CASPT2
  |   Save outputs to: /vscratch/grp-cyberwksp21/sbakenhaster/wed_7_8/openmolcas_pyspawn/Tutorials_OpenMolcas/03_S1_Optimization_CASPT2
  |            Molcas: /projects/academic/cyberwksp21/SOFTWARE_2026/OpenMolcas
  |
  | Scratch area is empty
  |
  |    MOLCAS_DRIVER = /projects/academic/cyberwksp21/SOFTWARE_2026/OpenMolcas/pymolcas
  |   MOLCAS_MAXITER = 900
  |    MOLCAS_MOLDEN = YES
  |    MOLCAS_NNODES = 1
  |  MOLCAS_NODELIST = cpn-c01-33
  |    MOLCAS_NPROCS = 1
  |     MOLCAS_PRINT = NORMAL
  |    MOLCAS_SOURCE = /projects/academic/cyberwksp21/SOFTWARE_2026/OpenMolcas
  | MOLCAS_STRUCTURE = 0
  |      MOLCAS_TRAP = YES
  |
   ----------------------------------------------------------------------------------------------------------------------------------------------------------------------------------------------

++ ---------   Input file   ---------

&GATEWAY
  Coord
  6
  Ethylene
  C      -1.979720      0.748150      0.000000
  C      -0.655823      0.692790     -0.000000
  H      -2.587863     -0.148840      0.000000
  H      -2.510933      1.692731     -0.000000
  H      -0.124610     -0.251791     -0.000000
  H      -0.047680      1.589780      0.000000
  Basis = 6-31G*
  Group = NoSym
  RICD

>>> DO WHILE

  &SEWARD

  >>> IF (ITER == 1)

    &SCF
     Charge = 0
     Spin = 1

  >>> END IF

  &RASSCF
                  Title = Ethylene SA-3-CAS(2,2)SCF
                  symmetry = 1
                  Nactel = 2 0 0
                  Spin = 1
                  Inactive = 7
                  Ras2 = 2
                  ciroot  =  3  3  1

  &CASPT2
                  XMultiState = all
                  convergence = 1.0d-07
                  IPEA        = 0.00
                  IMAGinary   = 0.25
                  RLXRoot     = 2

  >>> COPY $WorkDir/$Project.JobMix $WorkDir/JOB001

  &ALASKA
                  CutOFF=1.0D-9
                  SHOW

  &SLAPAF

>>> END DO

&RASSI
        NR OF JOBIPHS= 1 3
        1 2 3
        TRDI
        CIPRint
        EJob

-- ----------------------------------

--- Start Module: gateway at Wed Jul  8 10:32:39 2026 ---
 
()()()()()()()()()()()()()()()()()()()()()()()()()()()()()()()()()()()()()()()()()()()()()()()()()()

                                              &GATEWAY

                       only a single process is used, running in SERIAL mode
                       available to each process: 2.0 GB of memory, 1 thread?
                                            pid: 171994
()()()()()()()()()()()()()()()()()()()()()()()()()()()()()()()()()()()()()()()()()()()()()()()()()()
 
 
++    Symmetry information:
      ---------------------
 
                    Character Table for C1 
 
                             E  
                    a        1  x, y, xy, Rz, z, xz, Ry, yz, Rx, I
--
 
 
++    Basis set information:
      ----------------------
 
 
      Basis set label: C.6-31G**....
 
      Electronic valence basis set:
      ------------------
      Associated Effective Charge   6.000000 au
      Associated Actual Charge      6.000000 au
      Nuclear Model: Point charge
 
      Shell  nPrim  nBasis  Cartesian Spherical Contaminant
         s      10       3        X                  
         p       4       2        X                  
         d       1       1        X                  
 
 
      Basis set label: H.6-31G....
 
      Electronic valence basis set:
      ------------------
      Associated Effective Charge   1.000000 au
      Associated Actual Charge      1.000000 au
      Nuclear Model: Point charge
 
      Shell  nPrim  nBasis  Cartesian Spherical Contaminant
         s       4       2        X                  
--
 
 
++    Molecular structure info:
      -------------------------
 
                    ************************************************ 
                    **** Cartesian Coordinates / bohr, angstrom **** 
                    ************************************************ 
 
     Center  Label                x              y              z                     x              y              z
        1      C1              -3.741129       1.413799       0.000000             -1.979720       0.748150       0.000000
        2      C2              -1.239326       1.309183       0.000000             -0.655823       0.692790       0.000000
        3      H3              -4.890352      -0.281267       0.000000             -2.587863      -0.148840       0.000000
        4      H4              -4.744976       3.198798       0.000000             -2.510933       1.692731       0.000000
        5      H5              -0.235479      -0.475816       0.000000             -0.124610      -0.251791       0.000000
        6      H6              -0.090102       3.004249       0.000000             -0.047680       1.589780       0.000000
 
                    *************************************** 
                    *    InterNuclear Distances / bohr    * 
                    *************************************** 
 
               1 C1            2 C2            3 H3            4 H4            5 H5            6 H6    
    1 C1       0.000000
    2 C2       2.503989        0.000000
    3 H3       2.047916        3.982402        0.000000
    4 H4       2.047909        3.982490        3.483100        0.000000
    5 H5       3.982490        2.047909        4.658937        5.817074        0.000000
    6 H6       3.982402        2.047916        5.816959        4.658937        3.483100        0.000000
 
                    ******************************************* 
                    *    InterNuclear Distances / angstrom    * 
                    ******************************************* 
 
               1 C1            2 C2            3 H3            4 H4            5 H5            6 H6    
    1 C1       0.000000
    2 C2       1.325054        0.000000
    3 H3       1.083711        2.107396        0.000000
    4 H4       1.083707        2.107443        1.843177        0.000000
    5 H5       2.107443        1.083707        2.465403        3.078263        0.000000
    6 H6       2.107396        1.083711        3.078202        2.465403        1.843177        0.000000
 
                    ************************************** 
                    *    Valence Bond Angles / degree    * 
                    ************************************** 
                          Atom centers                 Phi
                      2 C2       1 C1       3 H3       121.74
                      2 C2       1 C1       4 H4       121.75
                      3 H3       1 C1       4 H4       116.51
                      1 C1       2 C2       5 H5       121.75
                      1 C1       2 C2       6 H6       121.74
                      5 H5       2 C2       6 H6       116.51
 
           ***************************************************************
           *              Valence Dihedral Angles / degree               *
           ***************************************************************
                    Atom centers                       Phi1     Phi2     Theta 
           3 H3       1 C1       2 C2       5 H5        121.74   121.75     0.00
           3 H3       1 C1       2 C2       6 H6        121.74   121.74  -180.00
           4 H4       1 C1       2 C2       5 H5        121.75   121.75  -180.00
           4 H4       1 C1       2 C2       6 H6        121.75   121.74     0.00
--
 
 
            Nuclear Potential Energy             33.47005806 au
 
--- Stop Module: gateway at Wed Jul  8 10:32:40 2026 /rc=_RC_ALL_IS_WELL_ ---
*** files: 03_Ethylene_Geom_S1_CASPT2.RICDLib xmldump
    saved to directory /vscratch/grp-cyberwksp21/sbakenhaster/wed_7_8/openmolcas_pyspawn/Tutorials_OpenMolcas/03_S1_Optimization_CASPT2
--- Module gateway spent 1 second ---

--- Start Module: seward at Wed Jul  8 10:32:40 2026 ---
 
()()()()()()()()()()()()()()()()()()()()()()()()()()()()()()()()()()()()()()()()()()()()()()()()()()

                                              &SEWARD

                       only a single process is used, running in SERIAL mode
                       available to each process: 2.0 GB of memory, 1 thread?
                                            pid: 171997
()()()()()()()()()()()()()()()()()()()()()()()()()()()()()()()()()()()()()()()()()()()()()()()()()()
 
               SEWARD will generate:
                  Multipole Moment integrals up to order  2
                  Kinetic Energy integrals
                  Nuclear Attraction integrals (point charge)
                  One-Electron Hamiltonian integrals
                  Velocity integrals
                  Orbital angular momentum around ( -2.4902   1.3615   0.0000 )
                  Velocity quadrupole around ( -2.4902   1.3615   0.0000 )
                  RI decomposed two-electron repulsion integrals stored Cholesky style
                   - acCD auxiliary basis
                   - CD Threshold:   1.00E-04
 
                   Integrals are discarded if absolute value <: 1.00E-14
                   Integral cutoff threshold is set to       <: 1.00E-16
 
            Nuclear Potential Energy             33.47005806 au
 
 
      Basis set specifications :
      Symmetry species         a  
      Basis functions           38
 
 
      Input file to MOLDEN was generated!
 
--- Stop Module: seward at Wed Jul  8 10:32:41 2026 /rc=_RC_ALL_IS_WELL_ ---
*** files: 03_Ethylene_Geom_S1_CASPT2.GssOrb 03_Ethylene_Geom_S1_CASPT2.guessorb.h5 03_Ethylene_Geom_S1_CASPT2.guessorb.molden xmldump
    saved to directory /vscratch/grp-cyberwksp21/sbakenhaster/wed_7_8/openmolcas_pyspawn/Tutorials_OpenMolcas/03_S1_Optimization_CASPT2
--- Module seward spent 1 second ---

>>> IF (ITER == 1)

*** symbolic link created: INPORB -> 03_Ethylene_Geom_S1_CASPT2.GssOrb
--- Start Module: scf at Wed Jul  8 10:32:41 2026 ---
 
()()()()()()()()()()()()()()()()()()()()()()()()()()()()()()()()()()()()()()()()()()()()()()()()()()

                                                &SCF

                       only a single process is used, running in SERIAL mode
                       available to each process: 2.0 GB of memory, 1 thread?
                                            pid: 172004
()()()()()()()()()()()()()()()()()()()()()()()()()()()()()()()()()()()()()()()()()()()()()()()()()()
 
++    Input section:
      --------------
 
      Header of the integral files:
      
       Integrals generated by Gateway/Seward, Wed Jul  8 10:32:40 2026
 
 
      Cartesian coordinates in angstrom:
      -----------------------------------------------------
      No.  Label        X            Y            Z        
      -----------------------------------------------------
       1   C1        -1.97972000   0.74815000   0.00000000
       2   C2        -0.65582300   0.69279000   0.00000000
       3   H3        -2.58786300  -0.14884000   0.00000000
       4   H4        -2.51093300   1.69273100   0.00000000
       5   H5        -0.12461000  -0.25179100   0.00000000
       6   H6        -0.04768000   1.58978000   0.00000000
      -----------------------------------------------------
      Nuclear repulsion energy =   33.47005806
--
 
++    Orbital specifications:
      -----------------------
 
      Symmetry species               1
                                     a
      Frozen orbitals                0
      Occupied orbitals              8
      Secondary orbitals            30
      Deleted orbitals               0
      Total number of orbitals      38
      Number of basis functions     38
--
 
      Molecular charge                           0.000
 
++    Optimization specifications:
      ----------------------------
 
      SCF Algorithm: LK-RI/DF
      LK screening threshold:                     4.50E-02
      Local-Exchange (LK) algorithm.
       - the density matrix is decomposed
      The actual AO density is used
      Number of density matrices in core                 5
      Maximum number of NDDO SCF iterations            400
      Maximum number of HF SCF iterations              400
      Threshold for SCF energy change             1.00E-09
      Threshold for density matrix                1.00E-04
      Threshold for Fock matrix                   1.50E-04
      Threshold for linear dependence             1.00E-09
      Threshold at which DIIS is turned on        1.50E-01
      Maximum depth in the DIIS procedure                5
      Maximum depth in the BFGS Hessian update          30
      Threshold at which QNR/C2DIIS is turned on  7.50E-02
      Threshold for Norm(delta) (QNR/C2DIIS)      1.00E-03
      All orbitals punched on: SCFORB
--
 
      Input vectors read from INPORB
      Orbital file label: *Guess orbitals
 
 
++ Convergence information
                                   SCF        iterations: Energy and convergence statistics
 
Iter     Tot. SCF        One-elec.       Two-elec.     Energy      Max Dij or  Max Fij      DNorm      TNorm      AccCon     Time
         Energy          Energy          Energy        Change      Delta Norm                                                in Sec.
   1   -77.869821401  -168.053191130    56.713311665   0.00E+00    1.85E-01*   1.32E-01*    4.01E+00   8.16E+01   None         0.
   2   -78.015795463  -170.963564064    59.477710538  -1.46E-01*   1.20E-01*   6.82E-02*    4.07E+00   8.34E+01   EDIIS        0.
   3   -78.029422989  -169.988593384    58.489112331  -1.36E-02*   1.82E-02*   1.53E-02*    4.04E+00   8.27E+01   c2DIIS       0.
   4   -78.031150510  -170.300761961    58.799553387  -1.73E-03*   6.49E-03*   6.29E-03*    4.06E+00   8.29E+01   QNRc2DIIS    0.
   5   -78.031266331  -170.259969775    58.758645381  -1.16E-04*   2.96E-03*   1.51E-03*    4.06E+00   8.29E+01   QNRc2DIIS    0.
   6   -78.031280493  -170.274788111    58.773449554  -1.42E-05*   2.38E-04    1.77E-04*    4.06E+00   8.29E+01   QNRc2DIIS    0.
   7   -78.031280692  -170.272431909    58.771093153  -1.99E-07*   5.28E-05    2.92E-05     4.06E+00   8.29E+01   QNRc2DIIS    0.
   8   -78.031280698  -170.272434928    58.771096167  -6.04E-09*   5.48E-06    2.54E-06     4.06E+00   8.29E+01   QNRc2DIIS    0.
   9   -78.031280698  -170.272440598    58.771101836  -4.54E-11    2.19E-07    1.17E-07     4.06E+00   8.29E+01   QNRc2DIIS    0.
 
       Convergence after   9 Iterations
--
 
 *****************************************************************************************************************************
 *                                                                                                                           *
 *                                             SCF/KS-DFT Program, Final results                                             *
 *                                                                                                                           *
 *                                                                                                                           *
 *                                                                                                                           *
 *                                                       Final Results                                                       *
 *                                                                                                                           *
 *****************************************************************************************************************************
 
::    Total SCF energy                                -78.0312806982
      One-electron energy                            -170.2724405975
      Two-electron energy                              58.7711018355
      Nuclear repulsion energy                         33.4700580638
      Kinetic energy (interpolated)                    77.9102411612
      Virial theorem                                    1.0015535767
      Total spin, S(S+1)                                0.0000000000
      Total spin, S                                     0.0000000000
      Max non-diagonal density matrix element           0.0000002611
      Max non-diagonal Fock matrix element              0.0000000232
 
 
      All orbitals with orbital energies smaller than  E(LUMO)+0.5 are printed
 
++    Molecular orbitals:
      -------------------
 
      Title: SCF orbitals

      Molecular orbitals for symmetry species 1: a  
 
          Orbital            1         2         3         4         5         6         7         8         9        10    
          Energy          -11.2275  -11.2258   -1.0296   -0.7873   -0.6375   -0.5838   -0.5010   -0.3726    0.1824    0.2657
          Occ. No.          2.0000    2.0000    2.0000    2.0000    2.0000    2.0000    2.0000    2.0000    0.0000    0.0000
 
        1 C1     1s         0.7038   -0.7042   -0.1575    0.1195    0.0000    0.0120    0.0000   -0.0000   -0.0000    0.0779
        2 C1     2s         0.0192   -0.0197    0.2981   -0.2313   -0.0000   -0.0285   -0.0000    0.0000   -0.0000   -0.0809
        3 C1     *s        -0.0053    0.0111    0.2301   -0.2355   -0.0000    0.0159   -0.0000    0.0000    0.0000   -1.4802
        4 C1     2px       -0.0001   -0.0002    0.1070    0.1674    0.0134   -0.4067   -0.0127   -0.0000    0.0000    0.1469
        5 C1     *px        0.0007    0.0017    0.0064    0.0671    0.0054   -0.1540   -0.0083    0.0000    0.0000    0.6443
        6 C1     2py        0.0000    0.0000   -0.0045   -0.0070    0.3210    0.0170   -0.3028   -0.0000   -0.0000   -0.0061
        7 C1     *py       -0.0000   -0.0001   -0.0003   -0.0028    0.1292    0.0065   -0.1978   -0.0000   -0.0000   -0.0269
        8 C1     2pz       -0.0000    0.0000    0.0000    0.0000    0.0000   -0.0000   -0.0000    0.3749   -0.3417   -0.0000
        9 C1     *pz        0.0000   -0.0000   -0.0000    0.0000   -0.0000   -0.0000   -0.0000    0.3050   -0.7414   -0.0000
       10 C1     *200      -0.0008    0.0006    0.0099   -0.0007   -0.0005   -0.0066    0.0015   -0.0000    0.0000   -0.0023
       11 C1     *110      -0.0000    0.0000   -0.0006   -0.0011   -0.0131    0.0018    0.0369    0.0000    0.0000    0.0007
       12 C1     *101       0.0000   -0.0000    0.0000   -0.0000    0.0000   -0.0000    0.0000    0.0255    0.0239    0.0000
       13 C1     *020      -0.0009    0.0007    0.0027   -0.0138    0.0005    0.0153   -0.0015   -0.0000   -0.0000    0.0063
       14 C1     *011      -0.0000   -0.0000    0.0000   -0.0000    0.0000    0.0000   -0.0000   -0.0011   -0.0010    0.0000
       15 C1     *002      -0.0011    0.0010   -0.0074    0.0063    0.0000   -0.0008   -0.0000    0.0000   -0.0000    0.0025
       16 C2     1s         0.7038    0.7042   -0.1575   -0.1195   -0.0000    0.0120    0.0000    0.0000   -0.0000    0.0779
       17 C2     2s         0.0192    0.0197    0.2981    0.2313    0.0000   -0.0285   -0.0000   -0.0000    0.0000   -0.0809
       18 C2     *s        -0.0053   -0.0111    0.2301    0.2355    0.0000    0.0159   -0.0000   -0.0000   -0.0000   -1.4802
       19 C2     2px        0.0001   -0.0002   -0.1070    0.1674    0.0134    0.4067    0.0127    0.0000   -0.0000   -0.1469
       20 C2     *px       -0.0007    0.0017   -0.0064    0.0671    0.0054    0.1540    0.0083    0.0000    0.0000   -0.6443
       21 C2     2py       -0.0000    0.0000    0.0045   -0.0070    0.3210   -0.0170    0.3028   -0.0000   -0.0000    0.0061
       22 C2     *py        0.0000   -0.0001    0.0003   -0.0028    0.1292   -0.0065    0.1978    0.0000    0.0000    0.0269
       23 C2     2pz        0.0000    0.0000    0.0000    0.0000    0.0000    0.0000   -0.0000    0.3749    0.3417    0.0000
       24 C2     *pz        0.0000   -0.0000    0.0000   -0.0000    0.0000    0.0000   -0.0000    0.3050    0.7414    0.0000
       25 C2     *200      -0.0008   -0.0006    0.0099    0.0007    0.0005   -0.0066    0.0015    0.0000    0.0000   -0.0023
       26 C2     *110      -0.0000   -0.0000   -0.0006    0.0011    0.0131    0.0018    0.0369    0.0000    0.0000    0.0007
       27 C2     *101       0.0000    0.0000    0.0000    0.0000    0.0000   -0.0000   -0.0000   -0.0255    0.0239    0.0000
       28 C2     *020      -0.0009   -0.0007    0.0027    0.0138   -0.0005    0.0153   -0.0015    0.0000   -0.0000    0.0063
       29 C2     *011      -0.0000   -0.0000    0.0000   -0.0000    0.0000    0.0000    0.0000    0.0011   -0.0010    0.0000
       30 C2     *002      -0.0011   -0.0010   -0.0074   -0.0063   -0.0000   -0.0008   -0.0000    0.0000   -0.0000    0.0025
       31 H3     1s        -0.0001    0.0001    0.0823   -0.1462   -0.1573    0.1250    0.1889    0.0000   -0.0000    0.0140
       32 H3     *s         0.0015   -0.0015    0.0160   -0.0670   -0.1082    0.1011    0.1556    0.0000   -0.0000    1.0305
       33 H4     1s        -0.0001    0.0001    0.0823   -0.1462    0.1573    0.1250   -0.1889    0.0000    0.0000    0.0140
       34 H4     *s         0.0015   -0.0015    0.0160   -0.0670    0.1082    0.1012   -0.1556    0.0000   -0.0000    1.0305
       35 H5     1s        -0.0001   -0.0001    0.0823    0.1462   -0.1573    0.1250   -0.1889    0.0000    0.0000    0.0140
       36 H5     *s         0.0015    0.0015    0.0160    0.0670   -0.1082    0.1012   -0.1556   -0.0000   -0.0000    1.0305
       37 H6     1s        -0.0001   -0.0001    0.0823    0.1462    0.1573    0.1250    0.1889   -0.0000   -0.0000    0.0140
       38 H6     *s         0.0015    0.0015    0.0160    0.0670    0.1082    0.1011    0.1556    0.0000   -0.0000    1.0305
 
          Orbital           11        12        13        14        15    
          Energy            0.2918    0.3086    0.3922    0.4952    0.6650
          Occ. No.          0.0000    0.0000    0.0000    0.0000    0.0000
 
        1 C1     1s        -0.0000    0.1083    0.0000   -0.0669   -0.0225
        2 C1     2s         0.0000   -0.1034    0.0000    0.0022   -0.2170
        3 C1     *s         0.0003   -1.9220   -0.0001    3.1404   -0.1862
        4 C1     2px        0.0106    0.1003   -0.0104    0.1304   -0.5501
        5 C1     *px        0.0332    0.1587   -0.0786    3.0046    1.0317
        6 C1     2py        0.2542   -0.0041   -0.2490   -0.0055    0.0230
        7 C1     *py        0.7957   -0.0065   -1.8809   -0.1256   -0.0431
        8 C1     2pz       -0.0000   -0.0000    0.0000   -0.0000   -0.0000
        9 C1     *pz       -0.0000   -0.0000    0.0000    0.0000    0.0000
       10 C1     *200       0.0010    0.0024    0.0007    0.0011   -0.0446
       11 C1     *110       0.0227   -0.0002    0.0176    0.0010    0.0053
       12 C1     *101       0.0000    0.0000    0.0000    0.0000   -0.0000
       13 C1     *020      -0.0010   -0.0006   -0.0007    0.0136    0.0183
       14 C1     *011       0.0000    0.0000   -0.0000   -0.0000   -0.0000
       15 C1     *002      -0.0000    0.0063   -0.0000   -0.0068   -0.0005
       16 C2     1s         0.0000   -0.1083    0.0000    0.0669   -0.0225
       17 C2     2s        -0.0000    0.1034    0.0000   -0.0022   -0.2170
       18 C2     *s        -0.0003    1.9220   -0.0001   -3.1404   -0.1862
       19 C2     2px        0.0106    0.1003    0.0104    0.1304    0.5501
       20 C2     *px        0.0332    0.1587    0.0786    3.0046   -1.0317
       21 C2     2py        0.2542   -0.0041    0.2490   -0.0055   -0.0230
       22 C2     *py        0.7957   -0.0065    1.8809   -0.1256    0.0431
       23 C2     2pz        0.0000   -0.0000    0.0000   -0.0000   -0.0000
       24 C2     *pz       -0.0000    0.0000   -0.0000   -0.0000    0.0000
       25 C2     *200      -0.0010   -0.0024    0.0007   -0.0011   -0.0446
       26 C2     *110      -0.0227    0.0002    0.0176   -0.0010    0.0053
       27 C2     *101      -0.0000   -0.0000   -0.0000   -0.0000   -0.0000
       28 C2     *020       0.0010    0.0006   -0.0007   -0.0136    0.0183
       29 C2     *011      -0.0000   -0.0000    0.0000   -0.0000    0.0000
       30 C2     *002       0.0000   -0.0063   -0.0000    0.0068   -0.0005
       31 H3     1s         0.0420    0.0175    0.0407    0.0803    0.0936
       32 H3     *s         1.0854    1.0707   -1.6178    0.5789    0.0605
       33 H4     1s        -0.0420    0.0175   -0.0407    0.0803    0.0936
       34 H4     *s        -1.0858    1.0703    1.6179    0.5791    0.0606
       35 H5     1s         0.0420   -0.0175   -0.0407   -0.0803    0.0936
       36 H5     *s         1.0858   -1.0703    1.6179   -0.5791    0.0606
       37 H6     1s        -0.0420   -0.0175    0.0407   -0.0803    0.0936
       38 H6     *s        -1.0854   -1.0707   -1.6178   -0.5789    0.0605
--
 
 
++    Molecular charges:
      ------------------
 
      Mulliken charges per centre and basis function type
      ---------------------------------------------------
 
                C1      C2      H3      H4      H5      H6    
      1s       1.9965  1.9965  0.5253  0.5253  0.5253  0.5253
      2s       0.6610  0.6610  0.0000  0.0000  0.0000  0.0000
      2px      0.7585  0.7585  0.0000  0.0000  0.0000  0.0000
      2pz      0.5066  0.5066  0.0000  0.0000  0.0000  0.0000
      2py      0.7104  0.7104  0.0000  0.0000  0.0000  0.0000
      *s       0.5780  0.5780  0.2978  0.2978  0.2978  0.2978
      *px      0.2313  0.2313  0.0000  0.0000  0.0000  0.0000
      *pz      0.4855  0.4855  0.0000  0.0000  0.0000  0.0000
      *py      0.3645  0.3645  0.0000  0.0000  0.0000  0.0000
      *200     0.0248  0.0248  0.0000  0.0000  0.0000  0.0000
      *110     0.0191  0.0191  0.0000  0.0000  0.0000  0.0000
      *101     0.0079  0.0079  0.0000  0.0000  0.0000  0.0000
      *020     0.0299  0.0299  0.0000  0.0000  0.0000  0.0000
      *011     0.0000  0.0000  0.0000  0.0000  0.0000  0.0000
      *002    -0.0203 -0.0203  0.0000  0.0000  0.0000  0.0000
      Total    6.3539  6.3539  0.8231  0.8231  0.8231  0.8231
 
      N-E     -0.3539 -0.3539  0.1769  0.1769  0.1769  0.1769
 
      Total electronic charge=   16.000000
 
      Total            charge=   -0.000000
--
 
 
++    Molecular properties:
      ---------------------
 
      Charge (e):
                      =   -0.0000
      Dipole Moment (debye):
      Origin of the operator (angstrom)=   -1.3178    0.7205    0.0000
                   X= -2.8628E-11               Y=  2.5358E-12               Z= -6.1089E-16           Total=  2.8740E-11
      Quadrupole Moment (debye*angstrom):
      Origin of the operator (angstrom)=   -1.3178    0.7205    0.0000
                  XX= -1.1993E+01              XY= -1.0517E-02              XZ= -3.3084E-15              YY= -1.2239E+01
                  YZ= -3.8998E-16              ZZ= -1.5443E+01
      In traceless form (debye*angstrom)
                  XX=  1.8481E+00              XY= -1.5776E-02              XZ= -4.9625E-15              YY=  1.4782E+00
                  YZ= -5.8497E-16              ZZ= -3.3263E+00
--
 
 
      Input file to MOLDEN was generated!
 
 ###############################################################################
 ###############################################################################
 ###                                                                         ###
 ###                                                                         ###
 ###    WARNING: RunFile label nBas                                          ###
 ###    was used       74 times                                              ###
 ###                                                                         ###
 ###                                                                         ###
 ###############################################################################
 ###############################################################################
--- Stop Module: scf at Wed Jul  8 10:32:43 2026 /rc=_RC_ALL_IS_WELL_ ---
*** files: 03_Ethylene_Geom_S1_CASPT2.scf.molden 03_Ethylene_Geom_S1_CASPT2.ScfOrb 03_Ethylene_Geom_S1_CASPT2.scf.h5 xmldump
    saved to directory /vscratch/grp-cyberwksp21/sbakenhaster/wed_7_8/openmolcas_pyspawn/Tutorials_OpenMolcas/03_S1_Optimization_CASPT2
--- Module scf spent 1 second ---

*** symbolic link created: INPORB -> 03_Ethylene_Geom_S1_CASPT2.ScfOrb
--- Start Module: rasscf at Wed Jul  8 10:32:43 2026 ---
 
()()()()()()()()()()()()()()()()()()()()()()()()()()()()()()()()()()()()()()()()()()()()()()()()()()

                                              &RASSCF

                       only a single process is used, running in SERIAL mode
                       available to each process: 2.0 GB of memory, 1 thread?
                                            pid: 172008
()()()()()()()()()()()()()()()()()()()()()()()()()()()()()()()()()()()()()()()()()()()()()()()()()()
 
 
      Header of the ONEINT file:
      --------------------------
      
      Integrals generated by Gateway/Seward, Wed Jul  8 10:32:40 2026
 
 
      OrdInt status: non-squared
 
 
      Cartesian coordinates in angstrom:
      -----------------------------------------------------
      No.  Label        X            Y            Z        
      -----------------------------------------------------
       1   C1        -1.97972000   0.74815000   0.00000000
       2   C2        -0.65582300   0.69279000   0.00000000
       3   H3        -2.58786300  -0.14884000   0.00000000
       4   H4        -2.51093300   1.69273100   0.00000000
       5   H5        -0.12461000  -0.25179100   0.00000000
       6   H6        -0.04768000   1.58978000   0.00000000
      -----------------------------------------------------
      Nuclear repulsion energy =   33.47005806
 
++    Wave function specifications:
      -----------------------------
 
      Number of closed shell electrons          14
      Number of electrons in active shells       2
      Max number of holes in RAS1 space          0
      Max nr of electrons in RAS3 space          0
      Number of inactive orbitals                7
      Number of active orbitals                  2
      Number of secondary orbitals              29
      Spin quantum number                      0.0
      State symmetry                             1
--
 
++    Orbital specifications:
      -----------------------
 
      Symmetry species                           1
                                                 a
      Frozen orbitals                            0
      Inactive orbitals                          7
      Active orbitals                            2
      RAS1 orbitals                              0
      RAS2 orbitals                              2
      RAS3 orbitals                              0
      Secondary orbitals                        29
      Deleted orbitals                           0
      Number of basis functions                 38
--
 
++    CI expansion specifications:
      ----------------------------
 
      Number of CSFs                             3
      Number of spin combinations                3
      Number of determinants                     4
      Number of root(s) required                 3
      Root chosen for geometry opt.              3
      CI roots used                              1     2     3
      weights                                0.333 0.333 0.333
      highest root included in the CI            3
      max. size of the explicit Hamiltonian      3
--
 
++    Optimization specifications:
      ----------------------------
 
      RASSCF algorithm: LK RI/DF
      Maximum number of macro iterations       200
      Maximum number of SX iterations          100
      Threshold for RASSCF energy            1.000E-08
      Threshold for max MO rotation          1.000E-01
      Threshold for max BLB element          1.000E-04
      Level shift parameter                  5.000E-01
      Make Quasi-Newton update
--
 
      Orbitals from runfile: scf orbitals
      The MO-coefficients are taken from scf orbitals on runfile
 
      Total molecular charge    0.00
 
      ************************************************************************************************************************
      *                                                                                                                      *
      *                                            Wave function control section                                             *
      *                                                                                                                      *
      ************************************************************************************************************************
 
 
                                         RASSCF iterations: Energy and convergence statistics
                                         ----------------------------------------------------
 
      Iter CI   SX   CI       RASSCF       Energy    max ROT     max BLB   max BLB  Level Ln srch  Step   QN   Walltime
          iter iter root      energy       change     param      element    value   shift minimum  type update hh:mm:ss
 Nr of preliminary CI iterations:   1
        1   1    5    0   -77.72442709    0.00E+00  -3.39E-02    6  15 1 -4.75E-02*  0.17   0.00    SX    NO    0:00:00
        2   1    4    0   -77.73034011   -5.91E-03*  1.42E-02    8  17 1  1.43E-02*  0.19   0.00    SX    NO    0:00:00
        3   1    4    0   -77.73075215   -4.12E-04* -4.98E-03    9  19 1  5.97E-03*  0.18   0.00    SX    NO    0:00:00
        4   1    4    0   -77.73079878   -4.66E-05*  1.41E-03    9  19 1  1.69E-03*  0.19   0.00    SX    NO    0:00:00
        5   1    3    0   -77.73080583   -7.05E-06* -1.46E-03    9  19 1  1.05E-03*  0.19   1.40    QN   YES    0:00:00
        6   1    3    0   -77.73080749   -1.65E-06* -7.05E-05    8  17 1 -7.93E-05   0.19   1.04    QN   YES    0:00:00
        7   1    3    0   -77.73080751   -2.16E-08*  3.43E-05    5  11 1  2.78E-05   0.19   1.43    QN   YES    0:00:00
        8   1    2    0   -77.73080751   -2.57E-09   1.12E-06    6  15 1 -2.20E-06   0.19   1.02    QN   YES    0:00:00
      Convergence after  8 iterations
        9   1    2    0   -77.73080751   -1.88E-11   1.12E-06    6  15 1 -1.03E-06   0.19   1.02    QN   YES    0:00:00
 
      ************************************************************************************************************************
                                                      Wave function printout:
                       occupation of active orbitals, and spin coupling of open shells (u,d: Spin up or down)
      ************************************************************************************************************************
 
      Note: transformation to natural orbitals
      has been made, which may change the order of the CSFs.
 
      printout of CI-coefficients larger than  0.05 for root  1
      energy=     -78.048178
      conf/sym  11     Coeff  Weight
             1  20  -0.86745 0.75247
             2  ud   0.49117 0.24125
             3  02   0.07927 0.00628
 
      printout of CI-coefficients larger than  0.05 for root  2
      energy=     -77.668160
      conf/sym  11     Coeff  Weight
             1  20   0.41830 0.17497
             2  ud   0.80626 0.65005
             3  02  -0.41830 0.17497
 
      printout of CI-coefficients larger than  0.05 for root  3
      energy=     -77.476085
      conf/sym  11     Coeff  Weight
             1  20   0.26937 0.07256
             2  ud   0.32970 0.10870
             3  02   0.90484 0.81874
 
      Natural orbitals and occupation numbers for root  1
      sym 1:   1.925491   0.074509
 
      Natural orbitals and occupation numbers for root  2
      sym 1:   1.000000   1.000000
 
      Natural orbitals and occupation numbers for root  3
      sym 1:   0.074509   1.925491
 
      ************************************************************************************************************************
      *                                                                                                                      *
      *                                                    Final results                                                     *
      *                                                                                                                      *
      ************************************************************************************************************************
 
 
++    Final optimization conditions:
      ------------------------------
 
      Average CI energy                             -77.73080751
      RASSCF energy for state  3                    -77.47608484
      Super-CI energy                                -0.00000000
      RASSCF energy change                           -0.00000000
      Max change in MO coefficients              -2.445E-06
      Max non-diagonal density matrix element     1.121E-06
      Maximum BLB matrix element                 -1.035E-06
      (orbital pair   6,  15 in symmetry   1)
      Norm of electronic gradient            1.077E-01
--
 
 
      Final state energy(ies):
      ------------------------
 
::    RASSCF root number  1 Total energy:    -78.04817763
::    RASSCF root number  2 Total energy:    -77.66816006
::    RASSCF root number  3 Total energy:    -77.47608484
 
++    Molecular orbitals:
      -------------------
 
      Pseudonatural active orbitals and approximate occupation numbers
 
 
 
 
      Molecular orbitals for symmetry species 1: a  
 
 
      Orbital                 1         2         3         4         5         6         7         8         9
      Energy           -11.2441  -11.2426   -1.0452   -0.7953   -0.6508   -0.5991   -0.5077   -0.2023    0.0112
      Occ. No.           2.0000    2.0000    2.0000    2.0000    2.0000    2.0000    2.0000    1.0000    1.0000
 
     1 C1     1s         0.7037   -0.7042   -0.1573    0.1216   -0.0000    0.0056    0.0000   -0.0000   -0.0000
     2 C1     2s         0.0194   -0.0198    0.3056   -0.2320    0.0000   -0.0217   -0.0000    0.0000   -0.0000
     3 C1     *s        -0.0053    0.0107    0.2168   -0.2831   -0.0000    0.0320   -0.0000    0.0000    0.0000
     4 C1     2px        0.0002   -0.0008    0.1255    0.1628    0.0137   -0.4082   -0.0130   -0.0000    0.0000
     5 C1     *px        0.0005    0.0017    0.0097    0.0440    0.0058   -0.1450   -0.0089    0.0000    0.0000
     6 C1     2py       -0.0000    0.0000   -0.0053   -0.0068    0.3270    0.0171   -0.3098   -0.0000   -0.0000
     7 C1     *py       -0.0000   -0.0001   -0.0004   -0.0018    0.1384    0.0061   -0.2132   -0.0000   -0.0000
     8 C1     2pz       -0.0000    0.0000    0.0000    0.0000    0.0000   -0.0000   -0.0000    0.2235   -0.4735
     9 C1     *pz        0.0000   -0.0000   -0.0000    0.0000   -0.0000   -0.0000   -0.0000    0.0848   -0.7572
    10 C1     *200      -0.0008    0.0004    0.0116    0.0014   -0.0004   -0.0098    0.0014   -0.0000    0.0000
    11 C1     *110      -0.0000    0.0000   -0.0007   -0.0013   -0.0092    0.0022    0.0340    0.0000    0.0000
    12 C1     *101       0.0000   -0.0000    0.0000   -0.0000    0.0000   -0.0000    0.0000    0.0366    0.0056
    13 C1     *020      -0.0010    0.0008    0.0032   -0.0139    0.0004    0.0161   -0.0014   -0.0000   -0.0000
    14 C1     *011      -0.0000   -0.0000    0.0000   -0.0000    0.0000    0.0000   -0.0000   -0.0015   -0.0002
    15 C1     *002      -0.0012    0.0010   -0.0091    0.0051    0.0000    0.0006   -0.0000    0.0000   -0.0000
    16 C2     1s         0.7037    0.7042   -0.1573   -0.1216    0.0000    0.0056    0.0000    0.0000   -0.0000
    17 C2     2s         0.0194    0.0198    0.3056    0.2320   -0.0000   -0.0217   -0.0000   -0.0000    0.0000
    18 C2     *s        -0.0053   -0.0107    0.2168    0.2831    0.0000    0.0320   -0.0000   -0.0000   -0.0000
    19 C2     2px       -0.0002   -0.0008   -0.1255    0.1628    0.0137    0.4082    0.0130    0.0000   -0.0000
    20 C2     *px       -0.0005    0.0017   -0.0097    0.0440    0.0058    0.1450    0.0089    0.0000    0.0000
    21 C2     2py        0.0000    0.0000    0.0053   -0.0068    0.3270   -0.0171    0.3098   -0.0000    0.0000
    22 C2     *py        0.0000   -0.0001    0.0004   -0.0018    0.1384   -0.0061    0.2132    0.0000    0.0000
    23 C2     2pz        0.0000    0.0000    0.0000    0.0000    0.0000    0.0000   -0.0000    0.4603    0.2496
    24 C2     *pz        0.0000   -0.0000    0.0000   -0.0000    0.0000    0.0000   -0.0000    0.5163    0.5604
    25 C2     *200      -0.0008   -0.0004    0.0116   -0.0014    0.0004   -0.0098    0.0014    0.0000    0.0000
    26 C2     *110      -0.0000   -0.0000   -0.0007    0.0013    0.0092    0.0022    0.0340    0.0000    0.0000
    27 C2     *101       0.0000    0.0000    0.0000    0.0000    0.0000   -0.0000   -0.0000   -0.0262    0.0262
    28 C2     *020      -0.0010   -0.0008    0.0032    0.0139   -0.0004    0.0161   -0.0014    0.0000   -0.0000
    29 C2     *011      -0.0000   -0.0000    0.0000   -0.0000    0.0000    0.0000    0.0000    0.0011   -0.0011
    30 C2     *002      -0.0012   -0.0010   -0.0091   -0.0051   -0.0000    0.0006   -0.0000    0.0000   -0.0000
    31 H3     1s        -0.0001    0.0000    0.0785   -0.1436   -0.1536    0.1268    0.1866    0.0000   -0.0000
    32 H3     *s         0.0014   -0.0014    0.0161   -0.0650   -0.0964    0.0996    0.1435    0.0000   -0.0000
    33 H4     1s        -0.0001    0.0000    0.0785   -0.1436    0.1536    0.1268   -0.1865    0.0000   -0.0000
    34 H4     *s         0.0014   -0.0014    0.0161   -0.0650    0.0964    0.0996   -0.1435   -0.0000   -0.0000
    35 H5     1s        -0.0001   -0.0000    0.0785    0.1436   -0.1536    0.1268   -0.1865    0.0000    0.0000
    36 H5     *s         0.0014    0.0014    0.0161    0.0650   -0.0964    0.0996   -0.1435   -0.0000   -0.0000
    37 H6     1s        -0.0001   -0.0000    0.0785    0.1436    0.1536    0.1268    0.1866   -0.0000   -0.0000
    38 H6     *s         0.0014    0.0014    0.0161    0.0650    0.0964    0.0996    0.1435   -0.0000   -0.0000
--
 
      Von Neumann Entropy (Root   1) =  0.22956
 

      Mulliken population analysis for root number:  1
      -----------------------------------------------
 
 
++    Molecular charges:
      ------------------
 
      Mulliken charges per centre and basis function type
      ---------------------------------------------------
 
                C1      C2      H3      H4      H5      H6    
      1s       1.9965  1.9965  0.5155  0.5155  0.5155  0.5155
      2s       0.6732  0.6732  0.0000  0.0000  0.0000  0.0000
      2px      0.7664  0.7664  0.0000  0.0000  0.0000  0.0000
      2pz      0.4794  0.4794  0.0000  0.0000  0.0000  0.0000
      2py      0.7319  0.7319  0.0000  0.0000  0.0000  0.0000
      *s       0.5995  0.5995  0.2822  0.2821  0.2821  0.2822
      *px      0.1911  0.1911  0.0000  0.0000  0.0000  0.0000
      *pz      0.5098  0.5098  0.0000  0.0000  0.0000  0.0000
      *py      0.3911  0.3911  0.0000  0.0000  0.0000  0.0000
      *200     0.0268  0.0268  0.0000  0.0000  0.0000  0.0000
      *110     0.0172  0.0172  0.0000  0.0000  0.0000  0.0000
      *101     0.0107  0.0107  0.0000  0.0000  0.0000  0.0000
      *020     0.0327  0.0327  0.0000  0.0000  0.0000  0.0000
      *011     0.0000  0.0000  0.0000  0.0000  0.0000  0.0000
      *002    -0.0218 -0.0218  0.0000  0.0000  0.0000  0.0000
      Total    6.4047  6.4047  0.7977  0.7976  0.7976  0.7977
 
      N-E     -0.4047 -0.4047  0.2023  0.2024  0.2024  0.2023
 
      Total electronic charge=   16.000000
 
      Total            charge=   -0.000000
--
 
 

      Expectation values of various properties for root number:  1
      -----------------------------------------------------------
 
 
++    Molecular properties:
      ---------------------
 
      Charge (e):
                      =   -0.0000
      Dipole Moment (debye):
      Origin of the operator (angstrom)=   -1.3178    0.7205    0.0000
                   X= -1.5377E-11               Y= -6.7472E-12               Z= -4.4874E-16           Total=  1.6792E-11
      Quadrupole Moment (debye*angstrom):
      Origin of the operator (angstrom)=   -1.3178    0.7205    0.0000
                  XX= -1.1250E+01              XY= -3.0976E-02              XZ= -3.2447E-15              YY= -1.1984E+01
                  YZ= -4.2651E-16              ZZ= -1.5605E+01
      In traceless form (debye*angstrom)
                  XX=  2.5453E+00              XY= -4.6464E-02              XZ= -4.8670E-15              YY=  1.4430E+00
                  YZ= -6.3977E-16              ZZ= -3.9883E+00
--
 
      Von Neumann Entropy (Root   2) =  1.00000
 

      Mulliken population analysis for root number:  2
      -----------------------------------------------
 
 
++    Molecular charges:
      ------------------
 
      Mulliken charges per centre and basis function type
      ---------------------------------------------------
 
                C1      C2      H3      H4      H5      H6    
      1s       1.9965  1.9965  0.5155  0.5155  0.5155  0.5155
      2s       0.6732  0.6732  0.0000  0.0000  0.0000  0.0000
      2px      0.7664  0.7664  0.0000  0.0000  0.0000  0.0000
      2pz      0.4536  0.4536  0.0000  0.0000  0.0000  0.0000
      2py      0.7319  0.7319  0.0000  0.0000  0.0000  0.0000
      *s       0.5995  0.5995  0.2822  0.2821  0.2821  0.2822
      *px      0.1911  0.1911  0.0000  0.0000  0.0000  0.0000
      *pz      0.5377  0.5377  0.0000  0.0000  0.0000  0.0000
      *py      0.3911  0.3911  0.0000  0.0000  0.0000  0.0000
      *200     0.0268  0.0268  0.0000  0.0000  0.0000  0.0000
      *110     0.0172  0.0172  0.0000  0.0000  0.0000  0.0000
      *101     0.0088  0.0088  0.0000  0.0000  0.0000  0.0000
      *020     0.0327  0.0327  0.0000  0.0000  0.0000  0.0000
      *011     0.0000  0.0000  0.0000  0.0000  0.0000  0.0000
      *002    -0.0218 -0.0218  0.0000  0.0000  0.0000  0.0000
      Total    6.4047  6.4047  0.7977  0.7976  0.7976  0.7977
 
      N-E     -0.4047 -0.4047  0.2023  0.2024  0.2024  0.2023
 
      Total electronic charge=   16.000000
 
      Total            charge=   -0.000000
--
 
 

      Expectation values of various properties for root number:  2
      -----------------------------------------------------------
 
 
++    Molecular properties:
      ---------------------
 
      Charge (e):
                      =   -0.0000
      Dipole Moment (debye):
      Origin of the operator (angstrom)=   -1.3178    0.7205    0.0000
                   X=  8.8043E-14               Y= -7.3612E-12               Z= -2.5659E-16           Total=  7.3617E-12
      Quadrupole Moment (debye*angstrom):
      Origin of the operator (angstrom)=   -1.3178    0.7205    0.0000
                  XX= -1.3547E+01              XY=  6.1496E-02              XZ= -1.7701E-15              YY= -1.2075E+01
                  YZ= -7.2273E-16              ZZ= -1.5865E+01
      In traceless form (debye*angstrom)
                  XX=  4.2231E-01              XY=  9.2245E-02              XZ= -2.6551E-15              YY=  2.6313E+00
                  YZ= -1.0841E-15              ZZ= -3.0536E+00
--
 
      Von Neumann Entropy (Root   3) =  0.22956
 

      Mulliken population analysis for root number:  3
      -----------------------------------------------
 
 
++    Molecular charges:
      ------------------
 
      Mulliken charges per centre and basis function type
      ---------------------------------------------------
 
                C1      C2      H3      H4      H5      H6    
      1s       1.9965  1.9965  0.5155  0.5155  0.5155  0.5155
      2s       0.6732  0.6732  0.0000  0.0000  0.0000  0.0000
      2px      0.7664  0.7664  0.0000  0.0000  0.0000  0.0000
      2pz      0.4277  0.4277  0.0000  0.0000  0.0000  0.0000
      2py      0.7319  0.7319  0.0000  0.0000  0.0000  0.0000
      *s       0.5995  0.5995  0.2822  0.2821  0.2821  0.2822
      *px      0.1911  0.1911  0.0000  0.0000  0.0000  0.0000
      *pz      0.5655  0.5655  0.0000  0.0000  0.0000  0.0000
      *py      0.3911  0.3911  0.0000  0.0000  0.0000  0.0000
      *200     0.0268  0.0268  0.0000  0.0000  0.0000  0.0000
      *110     0.0172  0.0172  0.0000  0.0000  0.0000  0.0000
      *101     0.0068  0.0068  0.0000  0.0000  0.0000  0.0000
      *020     0.0327  0.0327  0.0000  0.0000  0.0000  0.0000
      *011     0.0000  0.0000  0.0000  0.0000  0.0000  0.0000
      *002    -0.0218 -0.0218  0.0000  0.0000  0.0000  0.0000
      Total    6.4047  6.4047  0.7977  0.7976  0.7976  0.7977
 
      N-E     -0.4047 -0.4047  0.2023  0.2024  0.2024  0.2023
 
      Total electronic charge=   16.000000
 
      Total            charge=   -0.000000
--
 
 

      Expectation values of various properties for root number:  3
      -----------------------------------------------------------
 
 
++    Molecular properties:
      ---------------------
 
      Charge (e):
                      =   -0.0000
      Dipole Moment (debye):
      Origin of the operator (angstrom)=   -1.3178    0.7205    0.0000
                   X= -3.7884E-11               Y= -5.7629E-12               Z= -6.4439E-17           Total=  3.8319E-11
      Quadrupole Moment (debye*angstrom):
      Origin of the operator (angstrom)=   -1.3178    0.7205    0.0000
                  XX= -1.5845E+01              XY=  1.5397E-01              XZ= -2.9553E-16              YY= -1.2165E+01
                  YZ= -1.0189E-15              ZZ= -1.6124E+01
      In traceless form (debye*angstrom)
                  XX= -1.7007E+00              XY=  2.3095E-01              XZ= -4.4330E-16              YY=  3.8197E+00
                  YZ= -1.5284E-15              ZZ= -2.1190E+00
--
 
 
      Input file to MOLDEN was generated!
 
 
      Input file to MOLDEN was generated!
 
 
      Input file to MOLDEN was generated!
 
 
      Input file to MOLDEN was generated!
 
      Average orbitals are written to the RASORB file
      Natural orbitals for root   1 are written to the RASORB.1 file
      Natural orbitals for root   2 are written to the RASORB.2 file
      Natural orbitals for root   3 are written to the RASORB.3 file
      Spin density orbitals for root   1 are written to the SPDORB.1 file
      Spin density orbitals for root   2 are written to the SPDORB.2 file
      Spin density orbitals for root   3 are written to the SPDORB.3 file
 
--- Stop Module: rasscf at Wed Jul  8 10:32:46 2026 /rc=_RC_ALL_IS_WELL_ ---
*** files: 03_Ethylene_Geom_S1_CASPT2.rasscf.molden 03_Ethylene_Geom_S1_CASPT2.rasscf.molden.1 03_Ethylene_Geom_S1_CASPT2.rasscf.molden.2 03_Ethylene_Geom_S1_CASPT2.rasscf.molden.3
           03_Ethylene_Geom_S1_CASPT2.RasOrb 03_Ethylene_Geom_S1_CASPT2.RasOrb.1 03_Ethylene_Geom_S1_CASPT2.RasOrb.2 03_Ethylene_Geom_S1_CASPT2.RasOrb.3
           03_Ethylene_Geom_S1_CASPT2.rasscf.h5 03_Ethylene_Geom_S1_CASPT2.SpdOrb.1 03_Ethylene_Geom_S1_CASPT2.SpdOrb.2 03_Ethylene_Geom_S1_CASPT2.SpdOrb.3 xmldump
    saved to directory /vscratch/grp-cyberwksp21/sbakenhaster/wed_7_8/openmolcas_pyspawn/Tutorials_OpenMolcas/03_S1_Optimization_CASPT2
--- Module rasscf spent 2 seconds ---

*** symbolic link created: INPORB -> 03_Ethylene_Geom_S1_CASPT2.RasOrb
--- Start Module: caspt2 at Wed Jul  8 10:32:46 2026 ---
 
()()()()()()()()()()()()()()()()()()()()()()()()()()()()()()()()()()()()()()()()()()()()()()()()()()

                                              &CASPT2

                       only a single process is used, running in SERIAL mode
                       available to each process: 2.0 GB of memory, 1 thread?
                                            pid: 172011
()()()()()()()()()()()()()()()()()()()()()()()()()()()()()()()()()()()()()()()()()()()()()()()()()()
 
 
++    Wave function specifications:
      -----------------------------
 
      Number of closed shell electrons          10
      Number of electrons in active shells       2
      Max number of holes in RAS1 space          0
      Max number of electrons in RAS3 space      0
      Number of inactive orbitals                5
      Number of active orbitals                  2
      Number of secondary orbitals              29
      Spin quantum number                      0.0
      State symmetry                             1
      Number of CSFs                             3
      Number of CASSCF root(s) available         3
      CASPT2 state passed to geometry opt.       2
      A file JOBMIX will be created
      This is a MULTI-STATE CASSCF reference
      Number of CI roots used                    3
      These are:                                 1   2   3
      Off-diagonal elements of Heff are computed
--
 
++    Orbital specifications:
      -----------------------
 
      Symmetry species                           1
                                                 a
      Frozen orbitals                            2
      Inactive orbitals                          5
      Active orbitals                            2
      Secondary orbitals                        29
      Deleted orbitals                           0
      Number of basis functions                 38
--
 
++    CASPT2 specifications:
      ----------------------
 
      Type of calculation                        XMS-CASPT2
      Fock operator                              state-average
      IPEA shift                                 0.00
      Real shift                                 0.00
      Imaginary shift                            0.25
      The input orbitals will be transformed to quasi-canonical
      The input states will be rotated to diagonalize the Fock operator
      Quantities for analytical gradients will be calculated
--
 
--------------------------------------------------------------------------------
 Estimated memory requirements:
  POLY3 :                   250070
  RHS:                      268234
  SIGMA :                   267400
  PRPCTL:                   335302
 Available workspace:    249990267
 
++ CASPT2 computation for group   1
 
********************************************************************************
 Multi-State initialization phase begins for group   1
--------------------------------------------------------------------------------
 
  H0 in the original model space basis:
                1               2               3
   1       -7.63236002     -0.00000000      0.10027286
   2       -0.00000000     -7.38735158     -0.00000000
   3        0.10027286     -0.00000000     -7.14234314
 
  H0 eigenvectors:
                1               2               3
   1        0.98119600     -0.00000000      0.19301403
   2        0.00000000      1.00000000     -0.00000000
   3       -0.19301403      0.00000000      0.98119600
 
********************************************************************************
 Compute H0 matrices for state    1
--------------------------------------------------------------------------------
--------------------------------------------------------------------------------
 H0 matrices have been computed.
 
********************************************************************************
  CASPT2 EQUATION SOLUTION
--------------------------------------------------------------------------------
 
  Total nr of CASPT2 parameters:
   Before reduction:       23643
   After  reduction:       16468
 
 Variance of |WF0>:       0.8345761401
 
 The contributions to the second order correlation energy in atomic units.
-----------------------------------------------------------------------------------------------------------------------------
  IT.      VJTU        VJTI        ATVX        AIVX        VJAI        BVAT        BJAT        BJAI        TOTAL       RNORM  
-----------------------------------------------------------------------------------------------------------------------------
   1    -0.000000   -0.001956   -0.004556   -0.037774   -0.006461   -0.009763   -0.051800   -0.141755   -0.254065    0.000077
   2    -0.000000   -0.001956   -0.004556   -0.037774   -0.006461   -0.009763   -0.051800   -0.141755   -0.254065    0.000002
-----------------------------------------------------------------------------------------------------------------------------
 
  FINAL CASPT2 RESULT:
 
      Reference energy:         -78.0481776330
      E2 (Non-variational):      -0.2540646886
      Shift correction:          -0.0024655750
      E2 (Variational):          -0.2565302636
      Total energy:             -78.3047078967
      Residual norm:              0.0000000264
      Reference weight:           0.91625
 
      Contributions to the CASPT2 correlation energy
      Active & Virtual Only:         -0.0143191397
      One Inactive Excited:          -0.0895740564
      Two Inactive Excited:          -0.1501714925
 
 
++ Denominators, etc.
--------------------------------------------------------------------------------------------------------------
 Report on small energy denominators, large coefficients, and large energy contributions.
CASE  SYMM ACTIVE-MIX  NON-ACTIVE INDICES          DENOMINATOR     RHS VALUE       COEFFICIENT     CONTRIBUTION
VJTIP    1  Mu1.0001  In1.004 In1.004               1.66426337      0.04323954     -0.02541165     -0.00109879
ATVX     1  Mu1.0002  Se1.019                       1.36705283      0.06949799     -0.04894874     -0.00340184
AIVX     1  Mu1.0003  In1.004 Se1.010               1.32297512      0.05798874     -0.04221238     -0.00244784
AIVX     1  Mu1.0003  In1.003 Se1.012               1.61547742     -0.05282924      0.03184066     -0.00168212
AIVX     1  Mu1.0003  In1.005 Se1.013               1.30335453     -0.05539049      0.04083919     -0.00226210
AIVX     1  Mu1.0003  In1.006 Se1.014               1.35713658     -0.07038412      0.05008569     -0.00352524
AIVX     1  Mu1.0003  In1.007 Se1.016               1.53086410      0.07620552     -0.04840207     -0.00368851
AIVX     1  Mu1.0002  In1.004 Se1.018               1.91053863      0.05615696     -0.02890316     -0.00162311
AIVX     1  Mu1.0003  In1.006 Se1.020               1.80539521      0.09705920     -0.05262225     -0.00510747
AIVX     1  Mu1.0003  In1.003 Se1.025               2.62951226      0.06707970     -0.02519935     -0.00169036
BVATP    1  Mu1.0001  Se1.017 Se1.017               1.99193841      0.06591878     -0.03260737     -0.00214944
BJATM    1  Mu1.0001  In1.005 Se1.017 Se1.011       1.92965073      0.05194757     -0.02641740     -0.00137232
BJATM    1  Mu1.0001  In1.006 Se1.017 Se1.015       2.24817929      0.06717437     -0.02946874     -0.00197954
BJAIP    1  Se1.011 In1.005 Se1.013 In1.007         1.82920243      0.04807619     -0.02580066     -0.00124040
BJAIM    1  Se1.011 In1.005 Se1.014 In1.006         2.18589162      0.06266145     -0.02829619     -0.00177308
--
 
   (Skipping property calculation,
    use PROP keyword to activate)
********************************************************************************
 Compute H0 matrices for state    2
--------------------------------------------------------------------------------
--------------------------------------------------------------------------------
 H0 matrices have been computed.
 
********************************************************************************
  CASPT2 EQUATION SOLUTION
--------------------------------------------------------------------------------
 
  Total nr of CASPT2 parameters:
   Before reduction:       23643
   After  reduction:       21543
 
 Variance of |WF0>:       0.8935234659
 
 The contributions to the second order correlation energy in atomic units.
-----------------------------------------------------------------------------------------------------------------------------
  IT.      VJTU        VJTI        ATVX        AIVX        VJAI        BVAT        BJAT        BJAI        TOTAL       RNORM  
-----------------------------------------------------------------------------------------------------------------------------
   1    -0.000000   -0.003583   -0.004531   -0.067961   -0.008232   -0.016967   -0.055151   -0.141744   -0.298169    0.000254
   2    -0.000000   -0.003586   -0.004532   -0.068000   -0.008233   -0.016968   -0.055154   -0.141745   -0.298218    0.000006
   3    -0.000000   -0.003586   -0.004532   -0.068000   -0.008233   -0.016968   -0.055155   -0.141745   -0.298218    0.000000
-----------------------------------------------------------------------------------------------------------------------------
 
  FINAL CASPT2 RESULT:
 
      Reference energy:         -77.6681600613
      E2 (Non-variational):      -0.2982179095
      Shift correction:          -0.0046631461
      E2 (Variational):          -0.3028810556
      Total energy:             -77.9710411169
      Residual norm:              0.0000000029
      Reference weight:           0.88666
 
      Contributions to the CASPT2 correlation energy
      Active & Virtual Only:         -0.0214999752
      One Inactive Excited:          -0.1231546784
      Two Inactive Excited:          -0.1535632559
 
 
++ Denominators, etc.
--------------------------------------------------------------------------------------------------------------
 Report on small energy denominators, large coefficients, and large energy contributions.
CASE  SYMM ACTIVE-MIX  NON-ACTIVE INDICES          DENOMINATOR     RHS VALUE       COEFFICIENT     CONTRIBUTION
VJTU     1  Mu1.0001  In1.007                       0.27978023     -0.00000000      0.00000000     -0.00000000
VJTIP    1  Mu1.0001  In1.004 In1.003               1.64944321      0.07019675     -0.04172096     -0.00292868
ATVX     1  Mu1.0001  Se1.010                       0.22611002     -0.00000000      0.00000000     -0.00000000
ATVX     1  Mu1.0001  Se1.011                       0.24606767      0.00000000     -0.00000000     -0.00000000
ATVX     1  Mu1.0001  Se1.012                       0.26869906     -0.00000000      0.00000000     -0.00000000
ATVX     1  Mu1.0001  Se1.019                       0.83758600      0.04358839     -0.04782918     -0.00208480
ATVX     1  Mu1.0002  Se1.027                       1.94632583     -0.06446438      0.03261196     -0.00210231
AIVX     1  Mu1.0001  In1.004 Se1.010               0.79350829     -0.05571379      0.06469162     -0.00360422
AIVX     1  Mu1.0004  In1.004 Se1.010               1.32297512      0.05419486     -0.03944593     -0.00213777
AIVX     1  Mu1.0001  In1.003 Se1.012               1.08601059      0.03901049     -0.03456899     -0.00134855
AIVX     1  Mu1.0004  In1.003 Se1.012               1.61547742     -0.04845538      0.02920527     -0.00141515
AIVX     1  Mu1.0001  In1.005 Se1.013               0.77388770      0.05422894     -0.06405215     -0.00347348
AIVX     1  Mu1.0004  In1.005 Se1.013               1.30335453     -0.05482523      0.04042366     -0.00221624
AIVX     1  Mu1.0001  In1.006 Se1.014               0.82766975      0.06570728     -0.07384013     -0.00485183
AIVX     1  Mu1.0004  In1.006 Se1.014               1.35713658     -0.07096444      0.05050536     -0.00358408
AIVX     1  Mu1.0001  In1.007 Se1.016               1.00139727     -0.07570386      0.07200310     -0.00545091
AIVX     1  Mu1.0004  In1.007 Se1.016               1.53086410      0.07855280     -0.04989701     -0.00391955
AIVX     1  Mu1.0001  In1.006 Se1.020               1.27592838     -0.09040383      0.06910897     -0.00624772
AIVX     1  Mu1.0004  In1.006 Se1.020               1.80539521      0.10036346     -0.05442918     -0.00546270
AIVX     1  Mu1.0001  In1.005 Se1.022               1.53215431     -0.05187632      0.03314215     -0.00171929
AIVX     1  Mu1.0001  In1.006 Se1.024               1.54589488     -0.05190285      0.03293082     -0.00170920
AIVX     1  Mu1.0001  In1.003 Se1.025               2.10004543     -0.07529171      0.03547459     -0.00267094
AIVX     1  Mu1.0004  In1.003 Se1.025               2.62951226      0.06776472     -0.02546257     -0.00172546
AIVX     1  Mu1.0001  In1.006 Se1.025               1.65391777      0.05281652     -0.03134891     -0.00165574
BVATP    1  Mu1.0001  Se1.019 Se1.017               1.83355520     -0.10971117      0.05857184     -0.00642599
BVATP    1  Mu1.0001  Se1.020 Se1.018               1.98315146     -0.05185817      0.02574032     -0.00133485
BJAIP    1  Se1.011 In1.005 Se1.013 In1.007         1.82920243      0.04807619     -0.02580066     -0.00124040
BJAIM    1  Se1.011 In1.005 Se1.014 In1.006         2.18589162      0.06266145     -0.02829619     -0.00177308
--
 
   (Skipping property calculation,
    use PROP keyword to activate)
********************************************************************************
 Compute H0 matrices for state    3
--------------------------------------------------------------------------------
--------------------------------------------------------------------------------
 H0 matrices have been computed.
 
********************************************************************************
  CASPT2 EQUATION SOLUTION
--------------------------------------------------------------------------------
 
  Total nr of CASPT2 parameters:
   Before reduction:       23643
   After  reduction:       16468
 
 Variance of |WF0>:       0.8531605282
 
 The contributions to the second order correlation energy in atomic units.
-----------------------------------------------------------------------------------------------------------------------------
  IT.      VJTU        VJTI        ATVX        AIVX        VJAI        BVAT        BJAT        BJAI        TOTAL       RNORM  
-----------------------------------------------------------------------------------------------------------------------------
   1    -0.000000   -0.004439   -0.010042   -0.050850   -0.009904   -0.011958   -0.058196   -0.141734   -0.287122    0.000255
   2    -0.000000   -0.004444   -0.010049   -0.050871   -0.009909   -0.011959   -0.058200   -0.141736   -0.287169    0.000005
   3    -0.000000   -0.004444   -0.010049   -0.050871   -0.009909   -0.011959   -0.058200   -0.141736   -0.287169    0.000000
-----------------------------------------------------------------------------------------------------------------------------
 
  FINAL CASPT2 RESULT:
 
      Reference energy:         -77.4760848367
      E2 (Non-variational):      -0.2871686224
      Shift correction:          -0.0055129048
      E2 (Variational):          -0.2926815272
      Total energy:             -77.7687663639
      Residual norm:              0.0000000037
      Reference weight:           0.88552
 
      Contributions to the CASPT2 correlation energy
      Active & Virtual Only:         -0.0220081088
      One Inactive Excited:          -0.1090712727
      Two Inactive Excited:          -0.1560892409
 
 
++ Denominators, etc.
--------------------------------------------------------------------------------------------------------------
 Report on small energy denominators, large coefficients, and large energy contributions.
CASE  SYMM ACTIVE-MIX  NON-ACTIVE INDICES          DENOMINATOR     RHS VALUE       COEFFICIENT     CONTRIBUTION
VJTU     1  Mu1.0001  In1.005                       0.15814702     -0.00000000      0.00000000     -0.00000000
VJTU     1  Mu1.0001  In1.006                       0.10645045     -0.00000000      0.00000000     -0.00000000
VJTU     1  Mu1.0001  In1.007                       0.01504681      0.00000000     -0.00000000     -0.00000000
VJTU     1  Mu1.0002  In1.007                       0.27978023      0.00000000     -0.00000000     -0.00000000
VJTIP    1  Mu1.0001  In1.003 In1.003               1.63462306      0.07136852     -0.04222568     -0.00301358
ATVX     1  Mu1.0001  Se1.010                      -0.03862340     -0.00000000     -0.00000000      0.00000000
ATVX     1  Mu1.0002  Se1.010                       0.22611002      0.00000000     -0.00000000     -0.00000000
ATVX     1  Mu1.0001  Se1.011                      -0.01866574     -0.00000000     -0.00000000      0.00000000
ATVX     1  Mu1.0002  Se1.011                       0.24606767      0.00000000     -0.00000000     -0.00000000
ATVX     1  Mu1.0001  Se1.012                       0.00396564      0.00000000      0.00000000      0.00000000
ATVX     1  Mu1.0002  Se1.012                       0.26869906     -0.00000000     -0.00000000      0.00000000
ATVX     1  Mu1.0001  Se1.013                       0.08627384     -0.00000000      0.00000000     -0.00000000
ATVX     1  Mu1.0001  Se1.014                       0.19175248      0.00000000     -0.00000000     -0.00000000
ATVX     1  Mu1.0001  Se1.017                       0.46650237     -0.04777273      0.08010678     -0.00382692
ATVX     1  Mu1.0002  Se1.019                       0.83758600     -0.03082130      0.03443072     -0.00106120
ATVX     1  Mu1.0001  Se1.027                       1.41685900     -0.08549693      0.05924638     -0.00506538
AIVX     1  Mu1.0001  In1.004 Se1.010               0.79350829     -0.05953880      0.06914903     -0.00411705
AIVX     1  Mu1.0001  In1.003 Se1.012               1.08601059      0.05598197     -0.04930912     -0.00276042
AIVX     1  Mu1.0001  In1.005 Se1.013               0.77388770      0.05148096     -0.06072804     -0.00312634
AIVX     1  Mu1.0001  In1.003 Se1.014               1.27379742     -0.04160001      0.03147756     -0.00130947
AIVX     1  Mu1.0001  In1.006 Se1.014               0.82766975      0.06316704     -0.07071830     -0.00446707
AIVX     1  Mu1.0002  In1.006 Se1.014               0.82766975      0.02214201     -0.02522757     -0.00055859
AIVX     1  Mu1.0001  In1.007 Se1.016               1.00139727     -0.06531908      0.06210480     -0.00405663
AIVX     1  Mu1.0002  In1.007 Se1.016               1.00139727     -0.03826874      0.03634687     -0.00139095
AIVX     1  Mu1.0002  In1.004 Se1.018               1.38107180      0.03858540     -0.02733725     -0.00105482
AIVX     1  Mu1.0001  In1.003 Se1.020               1.72205605      0.06178503     -0.03517871     -0.00217352
AIVX     1  Mu1.0002  In1.003 Se1.020               1.72205605     -0.05965195      0.03372378     -0.00201169
AIVX     1  Mu1.0001  In1.006 Se1.020               1.27592838     -0.08270532      0.06285017     -0.00519804
AIVX     1  Mu1.0002  In1.006 Se1.020               1.27592838     -0.03765493      0.02936285     -0.00110566
AIVX     1  Mu1.0001  In1.005 Se1.022               1.53215431     -0.04654602      0.02971752     -0.00138323
AIVX     1  Mu1.0001  In1.004 Se1.023               1.73141873      0.04488367     -0.02562490     -0.00115014
AIVX     1  Mu1.0001  In1.006 Se1.024               1.54589488     -0.04749521      0.03020968     -0.00143481
AIVX     1  Mu1.0001  In1.003 Se1.025               2.10004543     -0.05983252      0.02814964     -0.00168426
AIVX     1  Mu1.0001  In1.006 Se1.025               1.65391777      0.05294302     -0.03142290     -0.00166362
VJAIP    1  Mu1.0001  Se1.027 In1.006 In1.003       3.13482122      0.08157684     -0.02543711     -0.00207508
BVATP    1  Mu1.0001  Se1.017 Se1.017               1.46247158      0.04185039     -0.02748204     -0.00115013
BVATP    1  Mu1.0001  Se1.019 Se1.019               1.67517200      0.07048458     -0.04143325     -0.00292040
BJATM    1  Mu1.0001  In1.005 Se1.019 Se1.011       1.77126752     -0.05681178      0.03160151     -0.00179534
BJATM    1  Mu1.0001  In1.007 Se1.019 Se1.013       1.73310690     -0.05218243      0.02958789     -0.00154397
BJATM    1  Mu1.0001  In1.006 Se1.019 Se1.015       2.08979609     -0.06324805      0.02995641     -0.00189468
BJATM    1  Mu1.0001  In1.006 Se1.027 Se1.020       3.22225421     -0.10281864      0.03248079     -0.00333963
BJAIP    1  Se1.011 In1.005 Se1.013 In1.007         1.82920243      0.04807619     -0.02580067     -0.00124040
BJAIM    1  Se1.011 In1.005 Se1.014 In1.006         2.18589162      0.06266145     -0.02829618     -0.00177308
--
 
   (Skipping property calculation,
    use PROP keyword to activate)
--
 
  Total CASPT2 energies:
 
  State-specific CASPT2 energies obtained using
  rotated states do not have a well-defined physical
  meaning, however they can be extracted from the
  diagonal of the effective Hamiltonian.
 
++ Multi-State CASPT2 section:
********************************************************************************
  MULTI-STATE CASPT2 SECTION
--------------------------------------------------------------------------------
 
 
  Effective Hamiltonian matrix (Symmetric):
 
                1               2               3
   1       -78.28339491
   2         0.00000000    -77.97104112
   3        -0.07504564     -0.00000000    -77.79007935
 
       Total XMS-CASPT2 energies:
::    XMS-CASPT2 Root  1     Total energy:    -78.29455860
::    XMS-CASPT2 Root  2     Total energy:    -77.97104112
::    XMS-CASPT2 Root  3     Total energy:    -77.77891566
 
       Eigenvectors:
            0.98911575      0.00000000     -0.14713949
           -0.00000000      1.00000000     -0.00000000
            0.14713949      0.00000000      0.98911575
 
       In terms of the input states:
            0.99891640      0.00000000      0.04654054
           -0.00000000      1.00000000     -0.00000000
           -0.04654054      0.00000000      0.99891640
 
--
 
********************************************************************************
 SECOND RUN to compute analytical gradients/NAC quantities
--------------------------------------------------------------------------------
 
++ CASPT2 computation for group   1
 
********************************************************************************
 Multi-State initialization phase begins for group   1
--------------------------------------------------------------------------------
 
  H0 in the original model space basis:
                1               2               3
   1       -7.65208499      0.00000000      0.00000000
   2        0.00000000     -7.38735158     -0.00000000
   3        0.00000000      0.00000000     -7.12261816
 
  H0 eigenvectors:
                1               2               3
   1        1.00000000      0.00000000      0.00000000
   2       -0.00000000      1.00000000     -0.00000000
   3       -0.00000000      0.00000000      1.00000000
 
********************************************************************************
  CASPT2 EQUATION SOLUTION (SECOND RUN)
********************************************************************************
 
********************************************************************************
  CASPT2 PROPERTY SECTION
--------------------------------------------------------------------------------
 
 Variance of |WF0>:       0.0000000000
-----------------------------------------------------------------------------------------------------------------------------
 
********************************************************************************
  CASPT2 EQUATION SOLUTION (SECOND RUN)
********************************************************************************
 
********************************************************************************
  CASPT2 PROPERTY SECTION
--------------------------------------------------------------------------------
 
 Variance of |WF0>:       0.0008930928
 
 Solving the Lambda equation for analytic gradients
-----------------------------------------------------------------------------------------------------------------------------
  IT.      VJTU        VJTI        ATVX        AIVX        VJAI        BVAT        BJAT        BJAI        TOTAL       RNORM  
-----------------------------------------------------------------------------------------------------------------------------
   1    -0.000000   -0.000014   -0.000060   -0.000613   -0.000001   -0.000031   -0.000022   -0.000036   -0.000778    0.000034
   2    -0.000000   -0.000014   -0.000060   -0.000614   -0.000001   -0.000031   -0.000022   -0.000036   -0.000779    0.000000
-----------------------------------------------------------------------------------------------------------------------------
 
********************************************************************************
  CASPT2 EQUATION SOLUTION (SECOND RUN)
********************************************************************************
 
********************************************************************************
  CASPT2 PROPERTY SECTION
--------------------------------------------------------------------------------
 
 Variance of |WF0>:       0.0000000000
-----------------------------------------------------------------------------------------------------------------------------
 
--
 
  THE ORIGINAL CI ARRAYS ARE NOW MIXED AS LINEAR
  COMBINATIONS, GIVEN BY THE EIGENVECTORS.
  A NEW JOBIPH FILE NAMED 'JOBMIX' IS PREPARED.
********************************************************************************
 
[...]
BVATP    1  Mu1.0001  Se1.020 Se1.020               1.71892218      0.06667210     -0.03807996     -0.00253887
BJATM    1  Mu1.0001  In1.007 Se1.017 Se1.014       1.75994159      0.04870297     -0.02758897     -0.00134366
BJATM    1  Mu1.0001  In1.007 Se1.018 Se1.017       2.15252423      0.05954136     -0.02753484     -0.00163946
BJATM    1  Mu1.0001  In1.005 Se1.020 Se1.012       1.79166549     -0.05084008      0.02787304     -0.00141707
BJATM    1  Mu1.0001  In1.006 Se1.020 Se1.013       1.77394438     -0.05008654      0.02770303     -0.00138755
BJATM    1  Mu1.0001  In1.007 Se1.020 Se1.016       2.12969281     -0.06065170      0.02811959     -0.00170550
BJATM    1  Mu1.0001  In1.007 Se1.027 Se1.014       2.66638435      0.06855901     -0.02704972     -0.00185450
BJAIP    1  Se1.012 In1.005 Se1.013 In1.006         1.84668769      0.05039571     -0.02679864     -0.00135054
BJAIP    1  Se1.014 In1.007 Se1.014 In1.007         1.90746901      0.05632512     -0.02903005     -0.00163512
BJAIM    1  Se1.012 In1.005 Se1.015 In1.007         2.20243612      0.05943011     -0.02664056     -0.00158325
BJAIM    1  Se1.014 In1.006 Se1.014 In1.007         2.21799492      0.06675367     -0.02971884     -0.00198384
--
 
   (Skipping property calculation,
    use PROP keyword to activate)
--
 
  Total CASPT2 energies:
 
  State-specific CASPT2 energies obtained using
  rotated states do not have a well-defined physical
  meaning, however they can be extracted from the
  diagonal of the effective Hamiltonian.
 
++ Multi-State CASPT2 section:
********************************************************************************
  MULTI-STATE CASPT2 SECTION
--------------------------------------------------------------------------------
 
 
  Effective Hamiltonian matrix (Symmetric):
 
                1               2               3
   1       -78.23909175
   2         0.00000001    -78.00685284
   3         0.07517275     -0.00000002    -77.91332620
 
       Total XMS-CASPT2 energies:
::    XMS-CASPT2 Root  1     Total energy:    -78.25560168
::    XMS-CASPT2 Root  2     Total energy:    -78.00685284
::    XMS-CASPT2 Root  3     Total energy:    -77.89681627
 
       Eigenvectors:
            0.97672096      0.00000008      0.21451377
           -0.00000004      1.00000000     -0.00000018
           -0.21451377      0.00000017      0.97672096
 
       In terms of the input states:
            0.99746920     -0.00000007     -0.07109985
            0.00000007      1.00000000     -0.00000003
            0.07109985      0.00000002      0.99746920
 
--
 
  THE ORIGINAL CI ARRAYS ARE NOW MIXED AS LINEAR
  COMBINATIONS, GIVEN BY THE EIGENVECTORS.
  A NEW JOBIPH FILE NAMED 'JOBMIX' IS PREPARED.
********************************************************************************
 
++ Mixed CI coefficients:
  The CI coefficients for the MIXED state nr.   1
--------------------------------------------------------------------------------
 CI COEFFICIENTS LARGER THAN  5.00E-02
  Occupation of active orbitals, and spin coupling
  of open shells. (u,d: Spin up or down).
  SGUGA info is (Midvert:IsyUp:UpperWalk/LowerWalk)
        Conf  SGUGA info        Occupation    Coefficient         Weight
           1  ( 1:1:   1/   1)   20              0.799822       0.639715
           2  ( 2:1:   1/   1)   ud              0.599058       0.358870
 
  The CI coefficients for the MIXED state nr.   2
--------------------------------------------------------------------------------
 CI COEFFICIENTS LARGER THAN  5.00E-02
  Occupation of active orbitals, and spin coupling
  of open shells. (u,d: Spin up or down).
  SGUGA info is (Midvert:IsyUp:UpperWalk/LowerWalk)
        Conf  SGUGA info        Occupation    Coefficient         Weight
           1  ( 1:1:   1/   1)   20             -0.502888       0.252896
           2  ( 2:1:   1/   1)   ud              0.702999       0.494207
           3  ( 3:1:   1/   1)   02              0.502888       0.252896
 
  The CI coefficients for the MIXED state nr.   3
--------------------------------------------------------------------------------
 CI COEFFICIENTS LARGER THAN  5.00E-02
  Occupation of active orbitals, and spin coupling
  of open shells. (u,d: Spin up or down).
  SGUGA info is (Midvert:IsyUp:UpperWalk/LowerWalk)
        Conf  SGUGA info        Occupation    Coefficient         Weight
           1  ( 1:1:   1/   1)   20              0.327702       0.107389
           2  ( 2:1:   1/   1)   ud             -0.383305       0.146923
           3  ( 3:1:   1/   1)   02              0.863533       0.745689
 
--
 
--- Stop Module: last_energy at Wed Jul  8 10:33:27 2026 /rc=_RC_ALL_IS_WELL_ ---
*** files: 03_Ethylene_Geom_S1_CASPT2.rasscf.molden 03_Ethylene_Geom_S1_CASPT2.rasscf.molden.1 03_Ethylene_Geom_S1_CASPT2.rasscf.molden.2 03_Ethylene_Geom_S1_CASPT2.rasscf.molden.3
           03_Ethylene_Geom_S1_CASPT2.RasOrb 03_Ethylene_Geom_S1_CASPT2.RasOrb.1 03_Ethylene_Geom_S1_CASPT2.RasOrb.2 03_Ethylene_Geom_S1_CASPT2.RasOrb.3
           03_Ethylene_Geom_S1_CASPT2.SpdOrb.1 03_Ethylene_Geom_S1_CASPT2.SpdOrb.2 03_Ethylene_Geom_S1_CASPT2.SpdOrb.3 xmldump
    saved to directory /vscratch/grp-cyberwksp21/sbakenhaster/wed_7_8/openmolcas_pyspawn/Tutorials_OpenMolcas/03_S1_Optimization_CASPT2
--- Module last_energy spent 3 seconds ---

>>> END DO

*** symbolic link created: INPORB -> 03_Ethylene_Geom_S1_CASPT2.RasOrb
--- Start Module: rassi at Wed Jul  8 10:33:27 2026 ---
 
()()()()()()()()()()()()()()()()()()()()()()()()()()()()()()()()()()()()()()()()()()()()()()()()()()

                                               &RASSI

                       only a single process is used, running in SERIAL mode
                       available to each process: 2.0 GB of memory, 1 thread?
                                            pid: 172148
()()()()()()()()()()()()()()()()()()()()()()()()()()()()()()()()()()()()()()()()()()()()()()()()()()
 
 
      ********************************************************************************
      *                                                                              *
      *                             General data section                             *
      *                                                                              *
      ********************************************************************************
 
   Specific data for JOBIPH file JOB001
   -------------------------------------
 
   Header from SEWARD:
                                                                               
        Integrals generated by Gateway/Seward, Wed Jul  8 10:33:17 2026        
 
   CASSCF title (first line only):
       Ethylene SA-3-CAS(2,2)SCF                                               
 
  STATE IRREP:                1
  SPIN MULTIPLICITY:          1
  ACTIVE ELECTRONS:           2
  MAX RAS1 HOLES:             0
  MAX RAS3 ELECTRONS:         0
  NR OF CONFIG:               3
 ###############################################################################
 ###############################################################################
 ###                                                                         ###
 ###                                                                         ###
 ###    WARNING: EJOB used when HEFF is available, possible                  ###
 ###    extra interaction between states is ignored!                         ###
 ###                                                                         ###
 ###                                                                         ###
 ###############################################################################
 ###############################################################################
 
   The following data are common to all the states:
   ------------------------------------------------
   (note: frozen counts as inactive, deleted as secondary)
 
      Nr of irreps: 1
 
                 Total     No./Irrep
      Irrep                  1
                             a
 
      INACTIVE       7       7
      ACTIVE         2       2
      SECONDARY     29      29
      BASIS         38      38
 
      RAS1           0       0
      RAS2           2       2
      RAS3           0       0
 
        MATRIX ELEMENTS WILL BE COMPUTED FOR THE FOLLOWING ONE-ELECTRON OPERATOR
 S, UNLESS ZERO BY SYMMETRY.
   (Herm=Hermitian, Anti=Antihermitian, Sing=Singlet operator, Trip=Triplet oper
 ator)
     MLTPL  0   1 (HERMSING)     MLTPL  1   1 (HERMSING)     MLTPL  1   2 (HERMSING)
     MLTPL  1   3 (HERMSING)     MLTPL  2   1 (HERMSING)     MLTPL  2   2 (HERMSING)
     MLTPL  2   3 (HERMSING)     MLTPL  2   4 (HERMSING)     MLTPL  2   5 (HERMSING)
     MLTPL  2   6 (HERMSING)     VELOCITY   1 (ANTISING)     VELOCITY   2 (ANTISING)
     VELOCITY   3 (ANTISING)     ANGMOM     1 (ANTISING)     ANGMOM     2 (ANTISING)
     ANGMOM     3 (ANTISING)     MLTPV  2   1 (ANTISING)     MLTPV  2   2 (ANTISING)
     MLTPV  2   3 (ANTISING)     MLTPV  2   4 (ANTISING)     MLTPV  2   5 (ANTISING)
     MLTPV  2   6 (ANTISING)
 
       EIGENSTATES OF A SPIN-FREE HAMILTONIAN WILL BE COMPUTED BASED ON:
 
  a Hamiltonian matrix assumed to be diagonal with energies read from the wavefu
 nction file(s).
 
  Nr of states:                     3
 
   State:        1   2   3
  JobIph:        1   1   1
 Root nr:        1   2   3
  READCI called for state                      1
  This is on JobIph nr.                     1
  JobIph file name:
 JOB001                                                                         
                                                  
  It is root nr.                     1
  Its length NCI=                     3
  Its symmetry  =                     1
  Spin multiplic=                     1
  Occupation of active orbitals, and spin coupling
  of open shells. (u,d: Spin up or down).
  SGUGA info is (Midvert:IsyUp:UpperWalk/LowerWalk)
   Conf   SGUGA info  Occupation       Coef       Weight                        
  
      2 ( 2:1:  1/  1)    ud          0.59218      0.35068
      3 ( 3:1:  1/  1)    02          0.80469      0.64753
 
 *******************************************************************************
 *
  READCI called for state                      2
  This is on JobIph nr.                     1
  JobIph file name:
 JOB001                                                                         
                                                  
  It is root nr.                     2
  Its length NCI=                     3
  Its symmetry  =                     1
  Spin multiplic=                     1
  Occupation of active orbitals, and spin coupling
  of open shells. (u,d: Spin up or down).
  SGUGA info is (Midvert:IsyUp:UpperWalk/LowerWalk)
   Conf   SGUGA info  Occupation       Coef       Weight                        
  
      1 ( 1:1:  1/  1)    20          0.49715      0.24716
      2 ( 2:1:  1/  1)    ud          0.71112      0.50569
      3 ( 3:1:  1/  1)    02         -0.49715      0.24716
 
 *******************************************************************************
 *
  READCI called for state                      3
  This is on JobIph nr.                     1
  JobIph file name:
 JOB001                                                                         
                                                  
  It is root nr.                     3
  Its length NCI=                     3
  Its symmetry  =                     1
  Spin multiplic=                     1
  Occupation of active orbitals, and spin coupling
  of open shells. (u,d: Spin up or down).
  SGUGA info is (Midvert:IsyUp:UpperWalk/LowerWalk)
   Conf   SGUGA info  Occupation       Coef       Weight                        
  
      1 ( 1:1:  1/  1)    20          0.86663      0.75105
      2 ( 2:1:  1/  1)    ud         -0.37899      0.14364
      3 ( 3:1:  1/  1)    02          0.32452      0.10532
 
 *******************************************************************************
 *
  READCI called for state                      1
  This is on JobIph nr.                     1
  JobIph file name:
 JOB001                                                                         
                                                  
  It is root nr.                     1
  Its length NCI=                     3
  Its symmetry  =                     1
  Spin multiplic=                     1
  Occupation of active orbitals, and spin coupling
  of open shells. (u,d: Spin up or down).
  SGUGA info is (Midvert:IsyUp:UpperWalk/LowerWalk)
   Conf   SGUGA info  Occupation       Coef       Weight                        
  
      2 ( 2:1:  1/  1)    ud          0.59218      0.35068
      3 ( 3:1:  1/  1)    02          0.80469      0.64753
 
 *******************************************************************************
 *
  READCI called for state                      2
  This is on JobIph nr.                     1
  JobIph file name:
 JOB001                                                                         
                                                  
  It is root nr.                     2
  Its length NCI=                     3
  Its symmetry  =                     1
  Spin multiplic=                     1
  Occupation of active orbitals, and spin coupling
  of open shells. (u,d: Spin up or down).
  SGUGA info is (Midvert:IsyUp:UpperWalk/LowerWalk)
   Conf   SGUGA info  Occupation       Coef       Weight                        
  
      1 ( 1:1:  1/  1)    20          0.49715      0.24716
      2 ( 2:1:  1/  1)    ud          0.71112      0.50569
      3 ( 3:1:  1/  1)    02         -0.49715      0.24716
 
 *******************************************************************************
 *
  READCI called for state                      3
  This is on JobIph nr.                     1
  JobIph file name:
 JOB001                                                                         
                                                  
  It is root nr.                     3
  Its length NCI=                     3
  Its symmetry  =                     1
  Spin multiplic=                     1
  Occupation of active orbitals, and spin coupling
  of open shells. (u,d: Spin up or down).
  SGUGA info is (Midvert:IsyUp:UpperWalk/LowerWalk)
   Conf   SGUGA info  Occupation       Coef       Weight                        
  
      1 ( 1:1:  1/  1)    20          0.86663      0.75105
      2 ( 2:1:  1/  1)    ud         -0.37899      0.14364
      3 ( 3:1:  1/  1)    02          0.32452      0.10532
 
 *******************************************************************************
 *
 
  HAMILTONIAN MATRIX FOR THE ORIGINAL STATES:
 
  Diagonal, with energies
    -78.25569299    -78.00685252    -77.89672600
 
      OVERLAP MATRIX FOR THE ORIGINAL STATES:
 
  Diagonal, with elements
      1.00000000      1.00000000      1.00000000
 
::    RASSI State    1     Total energy:     -78.25569298737247
::    RASSI State    2     Total energy:     -78.00685251992716
::    RASSI State    3     Total energy:     -77.89672599704105
 
 
 
      ****************************************************************************************************
      *                                                                                                  *
      *                                         Spin-free section                                        *
      *                                                                                                  *
      *                 Note: index according to input order, order according to energy.                 *
      *                                                                                                  *
      ****************************************************************************************************
 
 
 
  SPIN-FREE ENERGIES:
  (Shifted by EMIN (a.u.) =        -78.2556929874)
 
 SF State       Relative EMIN(au)   Rel lowest level(eV)    D:o, cm**(-1)
 
     1             0.0000000000        0.0000000000              0.0000
     2             0.2488404674        6.7712940733          54614.1699
     3             0.3589669903        9.7679894235          78784.1479
 
++ Dipole transition strengths (spin-free states):
   -----------------------------------------------
     for osc. strength at least  1.00000000E-05
 
      From   To        Osc. strength     Einstein coefficients Ax, Ay, Az (sec-1)    Total A (sec-1)
     -----------------------------------------------------------------------------------------------
         1    2       4.61784930E-01  9.17138326E+08  1.60173947E+06  5.23949653E-19  9.18740065E+08
         2    3       4.98947785E-01  1.94085023E+08  3.38960473E+05  1.10878350E-19  1.94423983E+08
     -----------------------------------------------------------------------------------------------
--
 
++ Dipole transition vectors (spin-free states):
   ---------------------------------------------
     for vector sizes at least  1.00000000E-04
 
      From   To                   Dx              Dy              Dz  Total D (a.u.)
     -------------------------------------------------------------------------------
         1    2       1.66696352E+00 -6.96633914E-02 -3.98431305E-14  1.66841852E+00
         2    3       2.60464361E+00 -1.08849597E-01 -6.22552059E-14  2.60691707E+00
     -----------------------------------------------------------------------------------------------
--
 
++ Velocity transition strengths (spin-free states):
   -------------------------------------------------
     for osc. strength at least  1.00000000E-05
 
      From   To        Osc. strength     Einstein coefficients Ax, Ay, Az (sec-1)    Total A (sec-1)
     -----------------------------------------------------------------------------------------------
         1    2       4.97422819E-01  9.87917766E+08  1.72534202E+06  4.44055147E-18  9.89643108E+08
         2    3       4.60373547E-01  1.79080084E+08  3.12753151E+05  8.04939803E-19  1.79392837E+08
     -----------------------------------------------------------------------------------------------
--
 
++ Length and velocity gauge comparison (spin-free states):
   --------------------------------------------------------
 
 --------------------------------------------------
 A comparison between the dipole oscillator strengths in
 length and velocity gauge will be performed
 
     All dipole oscillator differences above the tolerance of   1.00000000E-01  will be printed
 
 Due to basis set deficiency these oscillator may be problematic
 
 The tolerance is defined as ABS(1-O_l/O_v)
 O_l : dipole oscillator strength in length gauge
 O_p : dipole oscillator strength in velocity gauge
 --------------------------------------------------
 
 No problematic oscillator strengths above the tolerance 
  0.100000000000000       have been found
 
--
 
 Electric-dipole - electric-octupole not included
 Electric-dipole - magnetic-quadrupole not included
 
 
      ****************************************************************************************************
      *                                                                                                  *
      *                                    Special properties section                                    *
      *                                                                                                  *
      ****************************************************************************************************
 
 
--- Stop Module: rassi at Wed Jul  8 10:33:28 2026 /rc=_RC_ALL_IS_WELL_ ---
*** files: 03_Ethylene_Geom_S1_CASPT2.rassi.h5 xmldump
    saved to directory /vscratch/grp-cyberwksp21/sbakenhaster/wed_7_8/openmolcas_pyspawn/Tutorials_OpenMolcas/03_S1_Optimization_CASPT2

.##################.
.# Happy landing! #.
.##################.

    Timing: Wall=46.07 User=22.52 System=5.14
