[Molden Format]
[N_Atoms]
                     6
[Atoms] (AU)
C1          1      6          -3.96708844      1.42320839      0.00000000
C2          2      6          -1.01336755      1.29977363      0.00000000
H3          3      1          -5.03728293     -0.32265359      0.00000000
H4          4      1          -4.88788370      3.25227550     -0.00000000
H5          5      1          -0.09256936     -0.52927819     -0.00000000
H6          6      1           0.05682859      3.04562014      0.00000000
[Charge] (Mulliken)
  0.000000000000000E+000
  0.000000000000000E+000
  0.000000000000000E+000
  0.000000000000000E+000
  0.000000000000000E+000
  0.000000000000000E+000
[GTO] (AU)
   1
   s   6
  3.047524880E+03  1.834737132E-03
  4.573695180E+02  1.403732281E-02
  1.039486850E+02  6.884262227E-02
  2.921015530E+01  2.321844432E-01
  9.286662960E+00  4.679413484E-01
  3.163926960E+00  3.623119853E-01
   s   3
  7.868272350E+00 -1.193324198E-01
  1.881288540E+00 -1.608541517E-01
  5.442492580E-01  1.143456438E+00
   s   1
  1.687144782E-01  1.000000000E+00
   p   3
  7.868272350E+00  6.899906659E-02
  1.881288540E+00  3.164239610E-01
  5.442492580E-01  7.443082909E-01
   p   1
  1.687144782E-01  1.000000000E+00
   d   1
  8.000000000E-01  1.000000000E+00
 
   2
   s   6
  3.047524880E+03  1.834737132E-03
  4.573695180E+02  1.403732281E-02
  1.039486850E+02  6.884262227E-02
  2.921015530E+01  2.321844432E-01
  9.286662960E+00  4.679413484E-01
  3.163926960E+00  3.623119853E-01
   s   3
  7.868272350E+00 -1.193324198E-01
  1.881288540E+00 -1.608541517E-01
  5.442492580E-01  1.143456438E+00
   s   1
  1.687144782E-01  1.000000000E+00
   p   3
  7.868272350E+00  6.899906659E-02
  1.881288540E+00  3.164239610E-01
  5.442492580E-01  7.443082909E-01
   p   1
  1.687144782E-01  1.000000000E+00
   d   1
  8.000000000E-01  1.000000000E+00
 
   3
   s   3
  1.873113696E+01  3.349460434E-02
  2.825394365E+00  2.347269535E-01
  6.401216923E-01  8.137573261E-01
   s   1
  1.612777588E-01  1.000000000E+00
 
   4
   s   3
  1.873113696E+01  3.349460434E-02
  2.825394365E+00  2.347269535E-01
  6.401216923E-01  8.137573261E-01
   s   1
  1.612777588E-01  1.000000000E+00
 
   5
   s   3
  1.873113696E+01  3.349460434E-02
  2.825394365E+00  2.347269535E-01
  6.401216923E-01  8.137573261E-01
   s   1
  1.612777588E-01  1.000000000E+00
 
   6
   s   3
  1.873113696E+01  3.349460434E-02
  2.825394365E+00  2.347269535E-01
  6.401216923E-01  8.137573261E-01
   s   1
  1.612777588E-01  1.000000000E+00
 
[MO]
Sym=     1a  
Ene=     0.0000
Spin= Alpha
Occup=    2.00000
   1         0.70532924
   2         0.01608830
   3        -0.00734961
   4         0.00229920
   5        -0.00009608
   6        -0.00000000
   7         0.00156839
   8        -0.00006554
   9         0.00000000
  10        -0.00172040
  11        -0.00151777
  12        -0.00154487
  13         0.00000980
  14         0.00000000
  15         0.00000000
  16         0.70535038
  17         0.01608879
  18        -0.00734999
  19        -0.00229927
  20         0.00009608
  21         0.00000000
  22        -0.00156839
  23         0.00006554
  24        -0.00000000
  25        -0.00172043
  26        -0.00151781
  27        -0.00154493
  28         0.00000979
  29        -0.00000000
  30        -0.00000000
  31        -0.00194371
  32         0.00044205
  33        -0.00194371
  34         0.00044205
  35        -0.00194378
  36         0.00044209
  37        -0.00194378
  38         0.00044209
Sym=     2a  
Ene=     0.0000
Spin= Alpha
Occup=    2.00000
   1        -0.70539068
   2        -0.01613898
   3         0.01157244
   4        -0.00152386
   5         0.00006368
   6         0.00000000
   7         0.00081186
   8        -0.00003393
   9         0.00000000
  10         0.00073776
  11         0.00122726
  12         0.00133496
  13         0.00002366
  14        -0.00000000
  15        -0.00000000
  16         0.70536957
  17         0.01613851
  18        -0.01157227
  19        -0.00152380
  20         0.00006368
  21        -0.00000000
  22         0.00081189
  23        -0.00003393
  24         0.00000000
  25        -0.00073772
  26        -0.00122722
  27        -0.00133493
  28        -0.00002366
  29        -0.00000000
  30        -0.00000000
  31         0.00135788
  32        -0.00087352
  33         0.00135788
  34        -0.00087353
  35        -0.00135785
  36         0.00087353
  37        -0.00135785
  38         0.00087353
Sym=     3a  
Ene=     0.0000
Spin= Alpha
Occup=    1.97846
   1        -0.13143910
   2         0.27382056
   3         0.22793758
   4        -0.04415474
   5         0.00184524
   6        -0.00000000
   7        -0.03633166
   8         0.00151825
   9        -0.00000000
  10         0.01202650
  11         0.01777953
  12        -0.01361803
  13         0.00027813
  14        -0.00000000
  15        -0.00000000
  16        -0.13144238
  17         0.27382771
  18         0.22794315
  19         0.04415928
  20        -0.00184543
  21        -0.00000000
  22         0.03633290
  23        -0.00151831
  24        -0.00000000
  25         0.01202648
  26         0.01778008
  27        -0.01361838
  28         0.00027815
  29         0.00000000
  30         0.00000000
  31         0.12096230
  32         0.05146938
  33         0.12096224
  34         0.05146939
  35         0.12096651
  36         0.05147051
  37         0.12096657
  38         0.05147051
Sym=     4a  
Ene=     0.0000
Spin= Alpha
Occup=    1.97023
   1         0.12056866
   2        -0.25086999
   3        -0.27241047
   4         0.14246429
   5        -0.00595332
   6         0.00000000
   7         0.04407684
   8        -0.00184187
   9         0.00000000
  10         0.00543168
  11        -0.02396525
  12         0.01053367
  13        -0.00142107
  14         0.00000000
  15         0.00000000
  16        -0.12056497
  17         0.25086268
  18         0.27240285
  19         0.14246498
  20        -0.00595335
  21        -0.00000000
  22         0.04407589
  23        -0.00184183
  24        -0.00000000
  25        -0.00543191
  26         0.02396470
  27        -0.01053338
  28         0.00142105
  29         0.00000000
  30         0.00000000
  31        -0.14045170
  32        -0.06107922
  33        -0.14045134
  34        -0.06107899
  35         0.14044884
  36         0.06107706
  37         0.14044920
  38         0.06107729
Sym=     5a  
Ene=     0.0000
Spin= Alpha
Occup=    1.96710
   1        -0.00000010
   2         0.00000021
   3         0.00000026
   4         0.01341900
   5         0.32110728
   6        -0.00000000
   7         0.00571254
   8         0.13669667
   9        -0.00000000
  10        -0.00115553
  11         0.00115556
  12        -0.00000001
  13        -0.01593582
  14         0.00000000
  15        -0.00000000
  16         0.00000010
  17        -0.00000021
  18        -0.00000026
  19         0.01342018
  20         0.32113534
  21         0.00000000
  22         0.00571311
  23         0.13671043
  24         0.00000000
  25         0.00115574
  26        -0.00115576
  27         0.00000001
  28         0.01593866
  29         0.00000000
  30        -0.00000000
  31        -0.16054905
  32        -0.10763143
  33         0.16054939
  34         0.10763159
  35        -0.16056516
  36        -0.10764290
  37         0.16056481
  38         0.10764274
Sym=     6a  
Ene=     0.0000
Spin= Alpha
Occup=    1.96454
   1         0.00000001
   2         0.00000001
   3         0.00000010
   4        -0.01332784
   5        -0.31892091
   6         0.00000000
   7        -0.00758153
   8        -0.18141975
   9         0.00000000
  10         0.00224613
  11        -0.00224614
  12         0.00000001
  13         0.03097693
  14        -0.00000000
  15         0.00000000
  16         0.00000001
  17         0.00000001
  18         0.00000010
  19         0.01332675
  20         0.31889486
  21         0.00000000
  22         0.00758101
  23         0.18140735
  24         0.00000000
  25         0.00224605
  26        -0.00224606
  27         0.00000001
  28         0.03097583
  29         0.00000000
  30        -0.00000000
  31         0.18217148
  32         0.13382634
  33        -0.18217152
  34        -0.13382646
  35        -0.18215828
  36        -0.13381684
  37         0.18215824
  38         0.13381672
Sym=     7a  
Ene=     0.0000
Spin= Alpha
Occup=    1.91188
   1         0.05277125
   2        -0.10191002
   3        -0.09260091
   4        -0.40202083
   5         0.01680061
   6        -0.00000000
   7        -0.17833351
   8         0.00745263
   9        -0.00000000
  10        -0.02555173
  11         0.01975339
  12         0.00338521
  13         0.00219000
  14        -0.00000000
  15        -0.00000000
  16         0.05277175
  17        -0.10191077
  18        -0.09260379
  19         0.40202086
  20        -0.01680061
  21        -0.00000000
  22         0.17833356
  23        -0.00745263
  24        -0.00000000
  25        -0.02555147
  26         0.01975312
  27         0.00338515
  28         0.00218997
  29         0.00000000
  30         0.00000000
  31         0.08713490
  32         0.08682888
  33         0.08713496
  34         0.08682918
  35         0.08713467
  36         0.08682815
  37         0.08713461
  38         0.08682785
Sym=     8a  
Ene=     0.0000
Spin= Alpha
Occup=    1.00917
   1        -0.00000000
   2        -0.00000000
   3        -0.00000000
   4         0.00000000
   5         0.00000000
   6         0.32453700
   7         0.00000000
   8         0.00000000
   9         0.36931276
  10        -0.00000000
  11         0.00000000
  12        -0.00000000
  13        -0.00000000
  14         0.03477830
  15        -0.00145337
  16        -0.00000000
  17         0.00000000
  18        -0.00000000
  19        -0.00000000
  20        -0.00000000
  21         0.32452303
  22        -0.00000000
  23        -0.00000000
  24         0.36928998
  25        -0.00000000
  26         0.00000000
  27        -0.00000000
  28        -0.00000000
  29        -0.03477893
  30         0.00145340
  31        -0.00000000
  32        -0.00000000
  33         0.00000000
  34         0.00000000
  35         0.00000000
  36         0.00000000
  37        -0.00000000
  38        -0.00000000
Sym=     9a  
Ene=     0.0000
Spin= Alpha
Occup=    0.96013
   1         0.00000000
   2        -0.00000000
   3        -0.00000000
   4        -0.00000000
   5        -0.00000000
   6        -0.36361023
   7        -0.00000000
   8        -0.00000000
   9        -0.61355434
  10        -0.00000000
  11         0.00000000
  12         0.00000000
  13        -0.00000000
  14         0.02074987
  15        -0.00086713
  16        -0.00000000
  17         0.00000000
  18         0.00000000
  19        -0.00000000
  20        -0.00000000
  21         0.36362249
  22        -0.00000000
  23        -0.00000000
  24         0.61356824
  25         0.00000000
  26        -0.00000000
  27        -0.00000000
  28         0.00000000
  29         0.02074879
  30        -0.00086708
  31        -0.00000000
  32        -0.00000000
  33         0.00000000
  34         0.00000000
  35        -0.00000000
  36        -0.00000000
  37         0.00000000
  38         0.00000000
Sym=    10a  
Ene=     0.0000
Spin= Alpha
Occup=    0.07316
   1        -0.10412153
   2         0.33316919
   3         0.65154992
   4         0.66964621
   5        -0.02798489
   6         0.00000000
   7         0.51026584
   8        -0.02132376
   9        -0.00000000
  10        -0.05582289
  11        -0.00703985
  12         0.00306849
  13         0.00235814
  14         0.00000000
  15         0.00000000
  16         0.10412182
  17        -0.33317027
  18        -0.65155077
  19         0.66964490
  20        -0.02798483
  21        -0.00000000
  22         0.51026514
  23        -0.02132373
  24         0.00000000
  25         0.05582335
  26         0.00703931
  27        -0.00306866
  28        -0.00235818
  29         0.00000000
  30         0.00000000
  31        -0.03458023
  32         0.04661639
  33        -0.03457989
  34         0.04661625
  35         0.03458037
  36        -0.04661597
  37         0.03458071
  38        -0.04661612
Sym=    11a  
Ene=     0.0000
Spin= Alpha
Occup=    0.02216
   1         0.00000112
   2        -0.00000794
   3        -0.00000245
   4        -0.03039679
   5        -0.72746895
   6         0.00000000
   7         0.00181780
   8         0.04349451
   9         0.00000000
  10         0.00427260
  11        -0.00427114
  12         0.00000036
  13         0.05891383
  14         0.00000000
  15        -0.00000000
  16         0.00000112
  17        -0.00000794
  18        -0.00000245
  19         0.03039441
  20         0.72741206
  21         0.00000000
  22        -0.00181684
  23        -0.04347151
  24         0.00000000
  25         0.00427194
  26        -0.00427047
  27         0.00000036
  28         0.05890465
  29        -0.00000000
  30         0.00000000
  31        -0.15566208
  32        -0.42621540
  33         0.15566622
  34         0.42622417
  35         0.15566089
  36         0.42620863
  37        -0.15565676
  38        -0.42619986
Sym=    12a  
Ene=     0.0000
Spin= Alpha
Occup=    0.02160
   1         0.10176417
   2        -0.73373744
   3        -0.19626766
   4         0.39748271
   5        -0.01660289
   6         0.00000000
   7         0.01349937
   8        -0.00056472
   9         0.00000000
  10         0.07639398
  11         0.06029905
  12         0.03423458
  13        -0.00077866
  14        -0.00000000
  15        -0.00000000
  16         0.10175614
  17        -0.73368489
  18        -0.19626736
  19        -0.39746277
  20         0.01660205
  21         0.00000000
  22        -0.01348910
  23         0.00056429
  24         0.00000000
  25         0.07638939
  26         0.06029310
  27         0.03423160
  28        -0.00077873
  29         0.00000000
  30         0.00000000
  31         0.18617522
  32         0.38461119
  33         0.18617171
  34         0.38460177
  35         0.18615403
  36         0.38457963
  37         0.18615755
  38         0.38458905
Sym=    13a  
Ene=     0.0000
Spin= Alpha
Occup=    0.01952
   1        -0.00000036
   2         0.00000229
   3         0.00000003
   4         0.03089939
   5         0.73941068
   6        -0.00000000
   7        -0.01726689
   8        -0.41314936
   9         0.00000000
  10        -0.01175834
  11         0.01175781
  12        -0.00000011
  13        -0.16215994
  14         0.00000000
  15        -0.00000000
  16         0.00000036
  17        -0.00000230
  18        -0.00000003
  19         0.03090176
  20         0.73946759
  21         0.00000000
  22        -0.01726765
  23        -0.41316749
  24        -0.00000000
  25         0.01175870
  26        -0.01175817
  27         0.00000012
  28         0.16216496
  29         0.00000000
  30        -0.00000000
  31         0.03307613
  32         0.17529992
  33        -0.03307793
  34        -0.17530255
  35         0.03308969
  36         0.17533005
  37        -0.03308788
  38        -0.17532742
Sym=    14a  
Ene=     0.0000
Spin= Alpha
Occup=    0.01684
   1         0.11022500
   2        -0.83968606
   3         0.04564304
   4         0.34620322
   5        -0.01446551
   6         0.00000000
   7         0.17175997
   8        -0.00717877
   9         0.00000000
  10         0.07375419
  11         0.10086082
  12         0.06117678
  13         0.00131009
  14        -0.00000000
  15        -0.00000000
  16        -0.11023195
  17         0.83974363
  18        -0.04563053
  19         0.34623306
  20        -0.01446675
  21        -0.00000000
  22         0.17175883
  23        -0.00717873
  24        -0.00000000
  25        -0.07376030
  26        -0.10086509
  27        -0.06118078
  28        -0.00131000
  29        -0.00000000
  30        -0.00000000
  31         0.26276901
  32         0.33682097
  33         0.26276817
  34         0.33681921
  35        -0.26278025
  36        -0.33684763
  37        -0.26278109
  38        -0.33684940
Sym=    15a  
Ene=     0.0000
Spin= Alpha
Occup=    0.01277
   1        -0.00000017
   2         0.00000130
   3         0.00000084
   4         0.00781150
   5         0.18691792
   6        -0.00000000
   7         0.01927361
   8         0.46116643
   9         0.00000000
  10         0.02078022
  11        -0.02078045
  12        -0.00000008
  13         0.28659012
  14        -0.00000000
  15         0.00000000
  16         0.00000017
  17        -0.00000130
  18        -0.00000084
  19         0.00781193
  20         0.18692825
  21         0.00000000
  22         0.01927405
  23         0.46117705
  24        -0.00000000
  25        -0.02078024
  26         0.02078047
  27         0.00000008
  28        -0.28659051
  29        -0.00000000
  30         0.00000000
  31         0.36257247
  32         0.22233251
  33        -0.36257299
  34        -0.22233275
  35         0.36257700
  36         0.22234387
  37        -0.36257648
  38        -0.22234362
Sym=    16a  
Ene=     0.0000
Spin= Alpha
Occup=    0.01263
   1        -0.00000000
   2         0.00000000
   3        -0.00000000
   4         0.00000000
   5         0.00000000
   6         0.78922686
   7         0.00000000
   8         0.00000000
   9        -0.60256288
  10         0.00000000
  11        -0.00000000
  12        -0.00000000
  13         0.00000000
  14        -0.11351284
  15         0.00474357
  16        -0.00000000
  17         0.00000000
  18        -0.00000000
  19        -0.00000000
  20        -0.00000000
  21         0.78919544
  22        -0.00000000
  23        -0.00000000
  24        -0.60252409
  25         0.00000000
  26        -0.00000000
  27        -0.00000000
  28         0.00000000
  29         0.11351476
  30        -0.00474365
  31         0.00000000
  32         0.00000000
  33        -0.00000000
  34        -0.00000000
  35        -0.00000000
  36        -0.00000000
  37         0.00000000
  38         0.00000000
Sym=    17a  
Ene=     0.0000
Spin= Alpha
Occup=    0.01133
   1        -0.00000000
   2         0.00000000
   3         0.00000000
   4         0.00000000
   5         0.00000000
   6         0.79732104
   7         0.00000000
   8         0.00000000
   9        -0.98761409
  10         0.00000000
  11        -0.00000000
  12        -0.00000000
  13         0.00000000
  14         0.04598079
  15        -0.00192156
  16         0.00000000
  17        -0.00000000
  18        -0.00000000
  19         0.00000000
  20         0.00000000
  21        -0.79735216
  22         0.00000000
  23         0.00000000
  24         0.98763755
  25        -0.00000000
  26         0.00000000
  27         0.00000000
  28        -0.00000000
  29         0.04597586
  30        -0.00192135
  31         0.00000000
  32         0.00000000
  33        -0.00000000
  34        -0.00000000
  35         0.00000000
  36         0.00000000
  37        -0.00000000
  38        -0.00000000
Sym=    18a  
Ene=     0.0000
Spin= Alpha
Occup=    0.00764
   1        -0.00009191
   2         0.69606024
   3        -0.55425987
   4         0.35860778
   5        -0.01498646
   6        -0.00000000
   7        -0.43561829
   8         0.01820485
   9         0.00000000
  10         0.28868048
  11        -0.10292028
  12        -0.29129101
  13        -0.01892953
  14        -0.00000000
  15        -0.00000000
  16        -0.00009185
  17         0.69606255
  18        -0.55426173
  19        -0.35860817
  20         0.01498648
  21         0.00000000
  22         0.43561291
  23        -0.01820463
  24        -0.00000000
  25         0.28868085
  26        -0.10291963
  27        -0.29129247
  28        -0.01892952
  29         0.00000000
  30         0.00000000
  31         0.11634151
  32         0.01480623
  33         0.11634097
  34         0.01480749
  35         0.11634384
  36         0.01480669
  37         0.11634438
  38         0.01480544
Sym=    19a  
Ene=     0.0000
Spin= Alpha
Occup=    0.00653
   1         0.01401111
   2         0.28764675
   3        -0.66367978
   4        -0.14645513
   5         0.00612069
   6         0.00000000
   7         0.51244476
   8        -0.02141682
   9        -0.00000000
  10        -0.13887383
  11         0.37611442
  12        -0.24715164
  13         0.02489433
  14        -0.00000000
  15        -0.00000000
  16         0.01401174
  17         0.28763893
  18        -0.66368140
  19         0.14645036
  20        -0.00612049
  21         0.00000000
  22        -0.51245012
  23         0.02141704
  24         0.00000000
  25        -0.13887409
  26         0.37611470
  27        -0.24715080
  28         0.02489435
  29         0.00000000
  30         0.00000000
  31         0.31027691
  32         0.01598957
  33         0.31027761
  34         0.01598997
  35         0.31027817
  36         0.01599720
  37         0.31027747
  38         0.01599679
Sym=    20a  
Ene=     0.0000
Spin= Alpha
Occup=    0.00567
   1         0.01601090
   2         0.65074306
   3        -1.05834690
   4        -0.13009323
   5         0.00543681
   6        -0.00000000
   7         0.19714473
   8        -0.00823936
   9         0.00000000
  10        -0.07225140
  11         0.28760347
  12        -0.35021771
  13         0.01739515
  14        -0.00000000
  15        -0.00000000
  16        -0.01601133
  17        -0.65073477
  18         1.05835141
  19        -0.13009334
  20         0.00543681
  21        -0.00000000
  22         0.19715245
  23        -0.00823968
  24        -0.00000000
  25         0.07225361
  26        -0.28760502
  27         0.35021652
  28        -0.01739533
  29        -0.00000000
  30        -0.00000000
  31         0.33487025
  32        -0.01511731
  33         0.33487078
  34        -0.01511746
  35        -0.33487101
  36         0.01511232
  37        -0.33487048
  38         0.01511217
Sym=    21a  
Ene=     0.0000
Spin= Alpha
Occup=    0.00520
   1         0.00000000
   2        -0.00000000
   3         0.00000000
   4        -0.00000000
   5        -0.00000000
   6        -0.09474509
   7         0.00000000
   8         0.00000000
   9         0.17411493
  10         0.00000000
  11        -0.00000000
  12        -0.00000000
  13         0.00000000
  14        -0.64285309
  15         0.02686453
  16         0.00000000
  17         0.00000000
  18        -0.00000000
  19         0.00000000
  20         0.00000000
  21        -0.09474574
  22        -0.00000000
  23        -0.00000000
  24         0.17411506
  25         0.00000000
  26        -0.00000000
  27        -0.00000000
  28         0.00000000
  29         0.64285416
  30        -0.02686458
  31         0.00000000
  32         0.00000000
  33        -0.00000000
  34        -0.00000000
  35        -0.00000000
  36        -0.00000000
  37         0.00000000
  38         0.00000000
Sym=    22a  
Ene=     0.0000
Spin= Alpha
Occup=    0.00353
   1         0.00000000
   2        -0.00000000
   3         0.00000000
   4         0.00000000
   5        -0.00000000
   6         0.00000003
   7        -0.00000000
   8         0.00000000
   9         0.00000003
  10        -0.00000000
  11         0.00000000
  12        -0.00000000
  13         0.00000000
  14         0.02908614
  15         0.69600882
  16        -0.00000000
  17         0.00000000
  18        -0.00000000
  19         0.00000000
  20        -0.00000000
  21        -0.00000003
  22        -0.00000000
  23         0.00000000
  24        -0.00000003
  25         0.00000000
  26        -0.00000000
  27         0.00000000
  28        -0.00000000
  29         0.02908680
  30         0.69602445
  31         0.00000000
  32        -0.00000000
  33         0.00000000
  34        -0.00000000
  35        -0.00000000
  36         0.00000000
  37        -0.00000000
  38         0.00000000
Sym=    23a  
Ene=     0.0000
Spin= Alpha
Occup=    0.00320
   1         0.00000000
   2        -0.00000000
   3         0.00000000
   4         0.00000000
   5        -0.00000000
   6        -0.00000009
   7        -0.00000000
   8        -0.00000000
   9         0.00000006
  10        -0.00000000
  11        -0.00000000
  12         0.00000000
  13        -0.00000000
  14        -0.02998226
  15        -0.71745875
  16         0.00000000
  17        -0.00000000
  18         0.00000000
  19        -0.00000000
  20         0.00000000
  21        -0.00000009
  22         0.00000000
  23         0.00000000
  24         0.00000006
  25        -0.00000000
  26        -0.00000000
  27         0.00000000
  28        -0.00000000
  29         0.02998163
  30         0.71744359
  31         0.00000000
  32        -0.00000000
  33         0.00000000
  34        -0.00000000
  35         0.00000000
  36        -0.00000000
  37         0.00000000
  38        -0.00000000
Sym=    24a  
Ene=     0.0000
Spin= Alpha
Occup=    0.00303
   1         0.00000006
   2        -0.00000117
   3         0.00000022
   4         0.00582032
   5         0.13929418
   6        -0.00000000
   7         0.01685129
   8         0.40320792
   9         0.00000000
  10         0.02911025
  11        -0.02911036
  12         0.00000040
  13         0.40146899
  14         0.00000000
  15        -0.00000000
  16         0.00000006
  17        -0.00000118
  18         0.00000023
  19        -0.00582050
  20        -0.13929860
  21        -0.00000000
  22        -0.01685109
  23        -0.40320320
  24         0.00000000
  25         0.02911000
  26        -0.02911011
  27         0.00000040
  28         0.40146563
  29        -0.00000000
  30         0.00000000
  31         0.49326654
  32        -0.40806347
  33        -0.49326552
  34         0.40806291
  35        -0.49326306
  36         0.40806494
  37         0.49326409
  38        -0.40806550
Sym=    25a  
Ene=     0.0000
Spin= Alpha
Occup=    0.00267
   1         0.00076580
   2        -0.70873292
   3         1.96975579
   4        -0.53404643
   5         0.02231753
   6        -0.00000000
   7         1.58457205
   8        -0.06621832
   9         0.00000000
  10        -0.46914797
  11         0.27780697
  12         0.30166042
  13         0.03610811
  14         0.00000000
  15         0.00000000
  16        -0.00076571
  17         0.70872666
  18        -1.96974518
  19        -0.53404488
  20         0.02231747
  21         0.00000000
  22         1.58457100
  23        -0.06621827
  24        -0.00000000
  25         0.46915148
  26        -0.27781247
  27        -0.30165806
  28        -0.03610854
  29         0.00000000
  30         0.00000000
  31        -0.09699707
  32         0.13928171
  33        -0.09699549
  34         0.13927878
  35         0.09699990
  36        -0.13928622
  37         0.09700148
  38        -0.13928915
Sym=    26a  
Ene=     0.0000
Spin= Alpha
Occup=    0.00194
   1        -0.01138505
   2         0.31472392
   3         0.29020146
   4         0.45587512
   5        -0.01905136
   6         0.00000000
   7        -0.48288615
   8         0.02018034
   9        -0.00000000
  10        -0.45885679
  11        -0.19031934
  12         0.46623342
  13         0.01298127
  14         0.00000000
  15         0.00000000
  16        -0.01138517
  17         0.31471863
  18         0.29021020
  19        -0.45587638
  20         0.01905141
  21         0.00000000
  22         0.48288676
  23        -0.02018037
  24         0.00000000
  25        -0.45885865
  26        -0.19031417
  27         0.46623037
  28         0.01298161
  29        -0.00000000
  30        -0.00000000
  31         0.37001269
  32        -0.42632435
  33         0.37001328
  34        -0.42632506
  35         0.37001095
  36        -0.42632528
  37         0.37001035
  38        -0.42632458
Sym=    27a  
Ene=     0.0000
Spin= Alpha
Occup=    0.00155
   1        -0.00000000
   2         0.00000000
   3         0.00000000
   4        -0.00000000
   5        -0.00000000
   6        -0.04296025
   7         0.00000000
   8         0.00000000
   9         0.28745731
  10         0.00000000
  11        -0.00000000
  12         0.00000000
  13         0.00000000
  14         0.79705865
  15        -0.03330894
  16        -0.00000000
  17         0.00000000
  18        -0.00000000
  19        -0.00000000
  20        -0.00000000
  21         0.04296022
  22         0.00000000
  23         0.00000000
  24        -0.28745752
  25        -0.00000000
  26         0.00000000
  27        -0.00000000
  28        -0.00000000
  29         0.79705780
  30        -0.03330891
  31        -0.00000000
  32         0.00000000
  33         0.00000000
  34        -0.00000000
  35        -0.00000000
  36         0.00000000
  37         0.00000000
  38        -0.00000000
Sym=    28a  
Ene=     0.0000
Spin= Alpha
Occup=    0.00149
   1        -0.05880900
   2         0.97636872
   3        -0.84964479
   4         0.22263273
   5        -0.00930281
   6        -0.00000000
   7        -0.18896355
   8         0.00789399
   9        -0.00000000
  10        -0.53440824
  11         0.27442710
  12        -0.24272214
  13         0.03909872
  14        -0.00000000
  15        -0.00000000
  16        -0.05880927
  17         0.97638153
  18        -0.84967291
  19        -0.22263430
  20         0.00930288
  21        -0.00000000
  22         0.18898181
  23        -0.00789475
  24         0.00000000
  25        -0.53440548
  26         0.27442651
  27        -0.24272809
  28         0.03909855
  29         0.00000000
  30         0.00000000
  31        -0.45933600
  32         0.61270872
  33        -0.45933821
  34         0.61271461
  35        -0.45934014
  36         0.61271517
  37        -0.45933793
  38         0.61270927
Sym=    29a  
Ene=     0.0000
Spin= Alpha
Occup=    0.00131
   1         0.00000005
   2        -0.00000105
   3         0.00000352
   4         0.00761120
   5         0.18214562
   6        -0.00000000
   7         0.00230653
   8         0.05510926