[Molden Format]
[N_Atoms]
                     6
[Atoms] (AU)
C1          1      6          -3.96740366      1.42322305      0.00000000
C2          2      6          -1.01304971      1.29975887      0.00000000
H3          3      1          -5.03759708     -0.32269234     -0.00000001
H4          4      1          -4.88819648      3.25234175      0.00000001
H5          5      1          -0.09225852     -0.52935938      0.00000001
H6          6      1           0.05714205      3.04567394     -0.00000001
[Charge] (Mulliken)
 -0.410923650541804     
 -0.410922640181912     
  0.205461438731592     
  0.205461538340179     
  0.205461706616559     
  0.205461607035218     
[GTO] (AU)
   1
   s   6
  3.047524880E+03  1.834737132E-03
  4.573695180E+02  1.403732281E-02
  1.039486850E+02  6.884262227E-02
  2.921015530E+01  2.321844432E-01
  9.286662960E+00  4.679413484E-01
  3.163926960E+00  3.623119853E-01
   s   3
  7.868272350E+00 -1.193324198E-01
  1.881288540E+00 -1.608541517E-01
  5.442492580E-01  1.143456438E+00
   s   1
  1.687144782E-01  1.000000000E+00
   p   3
  7.868272350E+00  6.899906659E-02
  1.881288540E+00  3.164239610E-01
  5.442492580E-01  7.443082909E-01
   p   1
  1.687144782E-01  1.000000000E+00
   d   1
  8.000000000E-01  1.000000000E+00
 
   2
   s   6
  3.047524880E+03  1.834737132E-03
  4.573695180E+02  1.403732281E-02
  1.039486850E+02  6.884262227E-02
  2.921015530E+01  2.321844432E-01
  9.286662960E+00  4.679413484E-01
  3.163926960E+00  3.623119853E-01
   s   3
  7.868272350E+00 -1.193324198E-01
  1.881288540E+00 -1.608541517E-01
  5.442492580E-01  1.143456438E+00
   s   1
  1.687144782E-01  1.000000000E+00
   p   3
  7.868272350E+00  6.899906659E-02
  1.881288540E+00  3.164239610E-01
  5.442492580E-01  7.443082909E-01
   p   1
  1.687144782E-01  1.000000000E+00
   d   1
  8.000000000E-01  1.000000000E+00
 
   3
   s   3
  1.873113696E+01  3.349460434E-02
  2.825394365E+00  2.347269535E-01
  6.401216923E-01  8.137573261E-01
   s   1
  1.612777588E-01  1.000000000E+00
 
   4
   s   3
  1.873113696E+01  3.349460434E-02
  2.825394365E+00  2.347269535E-01
  6.401216923E-01  8.137573261E-01
   s   1
  1.612777588E-01  1.000000000E+00
 
   5
   s   3
  1.873113696E+01  3.349460434E-02
  2.825394365E+00  2.347269535E-01
  6.401216923E-01  8.137573261E-01
   s   1
  1.612777588E-01  1.000000000E+00
 
   6
   s   3
  1.873113696E+01  3.349460434E-02
  2.825394365E+00  2.347269535E-01
  6.401216923E-01  8.137573261E-01
   s   1
  1.612777588E-01  1.000000000E+00
 
[MO]
Sym=     1a  
Ene=   -11.2650
Spin= Alpha
Occup=    1.00000
   1         0.70411024
   2         0.01874961
   3        -0.00516807
   4         0.00008573
   5        -0.00000358
   6        -0.00000000
   7         0.00039663
   8        -0.00001658
   9         0.00000000
  10        -0.00169344
  11        -0.00123223
  12        -0.00168417
  13         0.00002229
  14         0.00000000
  15         0.00000000
  16         0.70394500
  17         0.01874528
  18        -0.00516595
  19        -0.00008569
  20         0.00000358
  21         0.00000000
  22        -0.00039692
  23         0.00001659
  24        -0.00000000
  25        -0.00169325
  26        -0.00123200
  27        -0.00168383
  28         0.00002230
  29        -0.00000000
  30        -0.00000000
  31        -0.00020448
  32         0.00139438
  33        -0.00020448
  34         0.00139438
  35        -0.00020447
  36         0.00139404
  37        -0.00020447
  38         0.00139404
Sym=     1a  
Ene=   -11.2650
Spin= Beta
Occup=    1.00000
   1         0.70411024
   2         0.01874961
   3        -0.00516807
   4         0.00008573
   5        -0.00000358
   6        -0.00000000
   7         0.00039663
   8        -0.00001658
   9         0.00000000
  10        -0.00169344
  11        -0.00123223
  12        -0.00168417
  13         0.00002229
  14         0.00000000
  15         0.00000000
  16         0.70394500
  17         0.01874528
  18        -0.00516595
  19        -0.00008569
  20         0.00000358
  21         0.00000000
  22        -0.00039692
  23         0.00001659
  24        -0.00000000
  25        -0.00169325
  26        -0.00123200
  27        -0.00168383
  28         0.00002230
  29        -0.00000000
  30        -0.00000000
  31        -0.00020448
  32         0.00139438
  33        -0.00020448
  34         0.00139438
  35        -0.00020447
  36         0.00139404
  37        -0.00020447
  38         0.00139404
Sym=     2a  
Ene=   -11.2650
Spin= Alpha
Occup=    1.00000
   1        -0.70414468
   2        -0.01846985
   3         0.00903333
   4        -0.00019704
   5         0.00000823
   6         0.00000000
   7         0.00122183
   8        -0.00005106
   9         0.00000000
  10         0.00078838
  11         0.00100365
  12         0.00143236
  13         0.00001041
  14        -0.00000000
  15        -0.00000000
  16         0.70430986
  17         0.01847425
  18        -0.00903454
  19        -0.00019706
  20         0.00000824
  21        -0.00000000
  22         0.00122174
  23        -0.00005106
  24         0.00000000
  25        -0.00078878
  26        -0.00100394
  27        -0.00143276
  28        -0.00001040
  29        -0.00000000
  30        -0.00000000
  31         0.00005024
  32        -0.00144184
  33         0.00005024
  34        -0.00144184
  35        -0.00005029
  36         0.00144217
  37        -0.00005029
  38         0.00144217
Sym=     2a  
Ene=   -11.2650
Spin= Beta
Occup=    1.00000
   1        -0.70414468
   2        -0.01846985
   3         0.00903333
   4        -0.00019704
   5         0.00000823
   6         0.00000000
   7         0.00122183
   8        -0.00005106
   9         0.00000000
  10         0.00078838
  11         0.00100365
  12         0.00143236
  13         0.00001041
  14        -0.00000000
  15        -0.00000000
  16         0.70430986
  17         0.01847425
  18        -0.00903454
  19        -0.00019706
  20         0.00000824
  21        -0.00000000
  22         0.00122174
  23        -0.00005106
  24         0.00000000
  25        -0.00078878
  26        -0.00100394
  27        -0.00143276
  28        -0.00001040
  29        -0.00000000
  30        -0.00000000
  31         0.00005024
  32        -0.00144184
  33         0.00005024
  34        -0.00144184
  35        -0.00005029
  36         0.00144217
  37        -0.00005029
  38         0.00144217
Sym=     3a  
Ene=    -0.9736
Spin= Alpha
Occup=    1.00000
   1        -0.14740311
   2         0.28923913
   3         0.24481170
   4         0.06011660
   5        -0.00251234
   6        -0.00000000
   7         0.01068467
   8        -0.00044652
   9        -0.00000000
  10         0.01828569
  11         0.01230948
  12        -0.01376725
  13        -0.00028890
  14         0.00000000
  15         0.00000000
  16        -0.14740327
  17         0.28923946
  18         0.24481191
  19        -0.06011642
  20         0.00251233
  21         0.00000000
  22        -0.01068463
  23         0.00044651
  24         0.00000000
  25         0.01828566
  26         0.01230954
  27        -0.01376727
  28        -0.00028890
  29        -0.00000000
  30        -0.00000000
  31         0.09470244
  32         0.02756927
  33         0.09470241
  34         0.02756926
  35         0.09470263
  36         0.02756930
  37         0.09470266
  38         0.02756932
Sym=     3a  
Ene=    -0.9736
Spin= Beta
Occup=    1.00000
   1        -0.14740311
   2         0.28923913
   3         0.24481170
   4         0.06011660
   5        -0.00251234
   6        -0.00000000
   7         0.01068467
   8        -0.00044652
   9        -0.00000000
  10         0.01828569
  11         0.01230948
  12        -0.01376725
  13        -0.00028890
  14         0.00000000
  15         0.00000000
  16        -0.14740327
  17         0.28923946
  18         0.24481191
  19        -0.06011642
  20         0.00251233
  21         0.00000000
  22        -0.01068463
  23         0.00044651
  24         0.00000000
  25         0.01828566
  26         0.01230954
  27        -0.01376727
  28        -0.00028890
  29        -0.00000000
  30        -0.00000000
  31         0.09470244
  32         0.02756927
  33         0.09470241
  34         0.02756926
  35         0.09470263
  36         0.02756930
  37         0.09470266
  38         0.02756932
Sym=     4a  
Ene=    -0.8108
Spin= Alpha
Occup=    1.00000
   1         0.12696531
   2        -0.24932400
   3        -0.27253057
   4         0.14218902
   5        -0.00594213
   6         0.00000000
   7         0.04457491
   8        -0.00186280
   9        -0.00000000
  10         0.00519246
  11        -0.02406804
  12         0.01030905
  13        -0.00141443
  14        -0.00000000
  15        -0.00000000
  16        -0.12696515
  17         0.24932369
  18         0.27253013
  19         0.14218920
  20        -0.00594213
  21         0.00000000
  22         0.04457493
  23        -0.00186280
  24        -0.00000000
  25        -0.00519252
  26         0.02406806
  27        -0.01030904
  28         0.00141444
  29        -0.00000000
  30        -0.00000000
  31        -0.14060019
  32        -0.06127471
  33        -0.14060023
  34        -0.06127473
  35         0.14060019
  36         0.06127467
  37         0.14060015
  38         0.06127464
Sym=     4a  
Ene=    -0.8108
Spin= Beta
Occup=    1.00000
   1         0.12696531
   2        -0.24932400
   3        -0.27253057
   4         0.14218902
   5        -0.00594213
   6         0.00000000
   7         0.04457491
   8        -0.00186280
   9        -0.00000000
  10         0.00519246
  11        -0.02406804
  12         0.01030905
  13        -0.00141443
  14        -0.00000000
  15        -0.00000000
  16        -0.12696515
  17         0.24932369
  18         0.27253013
  19         0.14218920
  20        -0.00594213
  21         0.00000000
  22         0.04457493
  23        -0.00186280
  24        -0.00000000
  25        -0.00519252
  26         0.02406806
  27        -0.01030904
  28         0.00141444
  29        -0.00000000
  30        -0.00000000
  31        -0.14060019
  32        -0.06127471
  33        -0.14060023
  34        -0.06127473
  35         0.14060019
  36         0.06127467
  37         0.14060015
  38         0.06127464
Sym=     5a  
Ene=    -0.6308
Spin= Alpha
Occup=    1.00000
   1        -0.00000000
   2         0.00000000
   3        -0.00000001
   4         0.01337453
   5         0.32003907
   6         0.00000000
   7         0.00571393
   8         0.13672870
   9         0.00000000
  10        -0.00115880
  11         0.00115879
  12         0.00000000
  13        -0.01598152
  14        -0.00000000
  15         0.00000000
  16         0.00000000
  17        -0.00000000
  18         0.00000001
  19         0.01337459
  20         0.32004048
  21        -0.00000000
  22         0.00571396
  23         0.13672927
  24        -0.00000000
  25         0.00115881
  26        -0.00115880
  27        -0.00000000
  28         0.01598163
  29        -0.00000000
  30         0.00000000
  31        -0.16081749
  32        -0.10827342
  33         0.16081744
  34         0.10827340
  35        -0.16081822
  36        -0.10827383
  37         0.16081827
  38         0.10827385
Sym=     5a  
Ene=    -0.6308
Spin= Beta
Occup=    1.00000
   1        -0.00000000
   2         0.00000000
   3        -0.00000001
   4         0.01337453
   5         0.32003907
   6         0.00000000
   7         0.00571393
   8         0.13672870
   9         0.00000000
  10        -0.00115880
  11         0.00115879
  12         0.00000000
  13        -0.01598152
  14        -0.00000000
  15         0.00000000
  16         0.00000000
  17        -0.00000000
  18         0.00000001
  19         0.01337459
  20         0.32004048
  21        -0.00000000
  22         0.00571396
  23         0.13672927
  24        -0.00000000
  25         0.00115881
  26        -0.00115880
  27        -0.00000000
  28         0.01598163
  29        -0.00000000
  30         0.00000000
  31        -0.16081749
  32        -0.10827342
  33         0.16081744
  34         0.10827340
  35        -0.16081822
  36        -0.10827383
  37         0.16081827
  38         0.10827385
Sym=     6a  
Ene=    -0.5423
Spin= Alpha
Occup=    1.00000
   1        -0.00000030
   2         0.00000069
   3         0.00000073
   4        -0.01326893
   5        -0.31776134
   6        -0.00000000
   7        -0.00759255
   8        -0.18179563
   9        -0.00000000
  10         0.00224190
  11        -0.00224195
  12         0.00000000
  13         0.03091106
  14         0.00000000
  15        -0.00000000
  16        -0.00000030
  17         0.00000069
  18         0.00000073
  19         0.01326888
  20         0.31776019
  21        -0.00000000
  22         0.00759253
  23         0.18179500
  24        -0.00000000
  25         0.00224189
  26        -0.00224195
  27         0.00000000
  28         0.03091098
  29        -0.00000000
  30         0.00000000
  31         0.18234519
  32         0.13429679
  33        -0.18235120
  34        -0.13430182
  35        -0.18235058
  36        -0.13430119
  37         0.18234457
  38         0.13429616
Sym=     6a  
Ene=    -0.5423
Spin= Beta
Occup=    1.00000
   1        -0.00000030
   2         0.00000069
   3         0.00000073
   4        -0.01326893
   5        -0.31776134
   6        -0.00000000
   7        -0.00759255
   8        -0.18179563
   9        -0.00000000
  10         0.00224190
  11        -0.00224195
  12         0.00000000
  13         0.03091106
  14         0.00000000
  15        -0.00000000
  16        -0.00000030
  17         0.00000069
  18         0.00000073
  19         0.01326888
  20         0.31776019
  21        -0.00000000
  22         0.00759253
  23         0.18179500
  24        -0.00000000
  25         0.00224189
  26        -0.00224195
  27         0.00000000
  28         0.03091098
  29        -0.00000000
  30         0.00000000
  31         0.18234519
  32         0.13429679
  33        -0.18235120
  34        -0.13430182
  35        -0.18235058
  36        -0.13430119
  37         0.18234457
  38         0.13429616
Sym=     7a  
Ene=    -0.5383
Spin= Alpha
Occup=    1.00000
   1         0.01251888
   2        -0.02845418
   3        -0.03163668
   4        -0.39883222
   5         0.01665900
   6        -0.00000000
   7        -0.18272120
   8         0.00763123
   9        -0.00000000
  10        -0.02147275
  11         0.02352417
  12        -0.00025245
  13         0.00217596
  14         0.00000000
  15         0.00000000
  16         0.01251884
  17        -0.02845406
  18        -0.03163667
  19         0.39883217
  20        -0.01665900
  21        -0.00000000
  22         0.18272114
  23        -0.00763122
  24        -0.00000000
  25        -0.02147278
  26         0.02352417
  27        -0.00025245
  28         0.00217596
  29        -0.00000000
  30        -0.00000000
  31         0.11534120
  32         0.09743854
  33         0.11533170
  34         0.09743143
  35         0.11533165
  36         0.09743135
  37         0.11534115
  38         0.09743847
Sym=     7a  
Ene=    -0.5383
Spin= Beta
Occup=    1.00000
   1         0.01251888
   2        -0.02845418
   3        -0.03163668
   4        -0.39883222
   5         0.01665900
   6        -0.00000000
   7        -0.18272120
   8         0.00763123
   9        -0.00000000
  10        -0.02147275
  11         0.02352417
  12        -0.00025245
  13         0.00217596
  14         0.00000000
  15         0.00000000
  16         0.01251884
  17        -0.02845406
  18        -0.03163667
  19         0.39883217
  20        -0.01665900
  21        -0.00000000
  22         0.18272114
  23        -0.00763122
  24        -0.00000000
  25        -0.02147278
  26         0.02352417
  27        -0.00025245
  28         0.00217596
  29        -0.00000000
  30        -0.00000000
  31         0.11534120
  32         0.09743854
  33         0.11533170
  34         0.09743143
  35         0.11533165
  36         0.09743135
  37         0.11534115
  38         0.09743847
Sym=     8a  
Ene=    -0.1613
Spin= Alpha
Occup=    0.08032
   1        -0.00000000
   2         0.00000000
   3         0.00000000
   4        -0.00000000
   5        -0.00000000
   6         0.33764250
   7        -0.00000000
   8        -0.00000000
   9         0.36044053
  10         0.00000000
  11        -0.00000000
  12        -0.00000000
  13         0.00000000
  14         0.02469262
  15        -0.00103192
  16        -0.00000000
  17         0.00000000
  18         0.00000000
  19         0.00000000
  20         0.00000000
  21         0.33764277
  22         0.00000000
  23         0.00000000
  24         0.36044070
  25         0.00000000
  26        -0.00000000
  27         0.00000000
  28         0.00000000
  29        -0.02469261
  30         0.00103192
  31         0.00000000
  32         0.00000000
  33        -0.00000000
  34        -0.00000000
  35        -0.00000000
  36        -0.00000000
  37         0.00000000
  38         0.00000000
Sym=     8a  
Ene=    -0.1613
Spin= Beta
Occup=    0.08032
   1        -0.00000000
   2         0.00000000
   3         0.00000000
   4        -0.00000000
   5        -0.00000000
   6         0.33764250
   7        -0.00000000
   8        -0.00000000
   9         0.36044053
  10         0.00000000
  11        -0.00000000
  12        -0.00000000
  13         0.00000000
  14         0.02469262
  15        -0.00103192
  16        -0.00000000
  17         0.00000000
  18         0.00000000
  19         0.00000000
  20         0.00000000
  21         0.33764277
  22         0.00000000
  23         0.00000000
  24         0.36044070
  25         0.00000000
  26        -0.00000000
  27         0.00000000
  28         0.00000000
  29        -0.02469261
  30         0.00103192
  31         0.00000000
  32         0.00000000
  33        -0.00000000
  34        -0.00000000
  35        -0.00000000
  36        -0.00000000
  37         0.00000000
  38         0.00000000
Sym=     9a  
Ene=    -0.0313
Spin= Alpha
Occup=    0.91968
   1         0.00000000
   2        -0.00000000
   3        -0.00000000
   4         0.00000000
   5         0.00000000
   6        -0.38378150
   7         0.00000000
   8         0.00000000
   9        -0.58958618
  10         0.00000000
  11        -0.00000000
  12        -0.00000000
  13         0.00000000
  14         0.01449577
  15        -0.00060579
  16        -0.00000000
  17         0.00000000
  18         0.00000000
  19         0.00000000
  20         0.00000000
  21         0.38378132
  22         0.00000000
  23         0.00000000
  24         0.58958603
  25        -0.00000000
  26         0.00000000
  27         0.00000000
  28        -0.00000000
  29         0.01449579
  30        -0.00060579
  31         0.00000000
  32         0.00000000
  33        -0.00000000
  34        -0.00000000
  35         0.00000000
  36         0.00000000
  37        -0.00000000
  38        -0.00000000
Sym=     9a  
Ene=    -0.0313
Spin= Beta
Occup=    0.91968
   1         0.00000000
   2        -0.00000000
   3        -0.00000000
   4         0.00000000
   5         0.00000000
   6        -0.38378150
   7         0.00000000
   8         0.00000000
   9        -0.58958618
  10         0.00000000
  11        -0.00000000
  12        -0.00000000
  13         0.00000000
  14         0.01449577
  15        -0.00060579
  16        -0.00000000
  17         0.00000000
  18         0.00000000
  19         0.00000000
  20         0.00000000
  21         0.38378132
  22         0.00000000
  23         0.00000000
  24         0.58958603
  25        -0.00000000
  26         0.00000000
  27         0.00000000
  28        -0.00000000
  29         0.01449579
  30        -0.00060579
  31         0.00000000
  32         0.00000000
  33        -0.00000000
  34        -0.00000000
  35         0.00000000
  36         0.00000000
  37        -0.00000000
  38        -0.00000000
Sym=    10a  
Ene=     0.2579
Spin= Alpha
Occup=    0.00000
   1         0.08210553
   2        -0.09245568
   3        -1.43225321
   4         0.13099894
   5        -0.00547444
   6         0.00000000
   7         0.56566598
   8        -0.02363876
   9         0.00000000
  10        -0.00497003
  11         0.01137958
  12         0.00552995
  13         0.00079034
  14        -0.00000000
  15        -0.00000000
  16         0.08210500
  17        -0.09245495
  18        -1.43224748
  19        -0.13099898
  20         0.00547444
  21         0.00000000
  22        -0.56566574
  23         0.02363875
  24         0.00000000
  25        -0.00497010
  26         0.01137960
  27         0.00552995
  28         0.00079035
  29         0.00000000
  30         0.00000000
  31         0.01957143
  32         1.00788726
  33         0.01957137
  34         1.00788661
  35         0.01957120
  36         1.00788334
  37         0.01957127
  38         1.00788399
Sym=    10a  
Ene=     0.2579
Spin= Beta
Occup=    0.00000
   1         0.08210553
   2        -0.09245568
   3        -1.43225321
   4         0.13099894
   5        -0.00547444
   6         0.00000000
   7         0.56566598
   8        -0.02363876
   9         0.00000000
  10        -0.00497003
  11         0.01137958
  12         0.00552995
  13         0.00079034
  14        -0.00000000
  15        -0.00000000
  16         0.08210500
  17        -0.09245495
  18        -1.43224748
  19        -0.13099898
  20         0.00547444
  21         0.00000000
  22        -0.56566574
  23         0.02363875
  24         0.00000000
  25        -0.00497010
  26         0.01137960
  27         0.00552995
  28         0.00079035
  29         0.00000000
  30         0.00000000
  31         0.01957143
  32         1.00788726
  33         0.01957137
  34         1.00788661
  35         0.01957120
  36         1.00788334
  37         0.01957127
  38         1.00788399
Sym=    11a  
Ene=     0.2875
Spin= Alpha
Occup=    0.00000
   1         0.12355802
   2        -0.13278800
   3        -1.86718980
   4         0.00699456
   5        -0.00029348
   6         0.00000000
   7        -0.07549193
   8         0.00315070
   9         0.00000000
  10         0.01237461
  11        -0.00009951
  12         0.00636274
  13        -0.00060311
  14         0.00000000
  15         0.00000000
  16        -0.12355836
  17         0.13278843
  18         1.86719697
  19         0.00699481
  20        -0.00029349
  21        -0.00000000
  22        -0.07548980
  23         0.00315061
  24        -0.00000000
  25        -0.01237456
  26         0.00009946
  27        -0.00636277
  28         0.00060311
  29         0.00000000
  30         0.00000000
  31         0.03114237
  32         0.95749956
  33         0.03114288
  34         0.95751055
  35        -0.03114285
  36        -0.95751548
  37        -0.03114234
  38        -0.95750449
Sym=    11a  
Ene=     0.2875
Spin= Beta
Occup=    0.00000
   1         0.12355802
   2        -0.13278800
   3        -1.86718980
   4         0.00699456
   5        -0.00029348
   6         0.00000000
   7        -0.07549193
   8         0.00315070
   9         0.00000000
  10         0.01237461
  11        -0.00009951
  12         0.00636274
  13        -0.00060311
  14         0.00000000
  15         0.00000000
  16        -0.12355836
  17         0.13278843
  18         1.86719697
  19         0.00699481
  20        -0.00029349
  21        -0.00000000
  22        -0.07548980
  23         0.00315061
  24        -0.00000000
  25        -0.01237456
  26         0.00009946
  27        -0.00636277
  28         0.00060311
  29         0.00000000
  30         0.00000000
  31         0.03114237
  32         0.95749956
  33         0.03114288
  34         0.95751055
  35        -0.03114285
  36        -0.95751548
  37        -0.03114234
  38        -0.95750449
Sym=    12a  
Ene=     0.3014
Spin= Alpha
Occup=    0.00000
   1         0.00000060
   2        -0.00000055
   3        -0.00001009
   4         0.01013983
   5         0.24263016
   6         0.00000000
   7         0.03685483
   8         0.88191189
   9         0.00000001
  10         0.00140515
  11        -0.00140510
  12         0.00000005
  13         0.01937818
  14        -0.00000000
  15         0.00000000
  16        -0.00000060
  17         0.00000055
  18         0.00001009
  19         0.01013980
  20         0.24262951
  21        -0.00000000
  22         0.03685480
  23         0.88191109
  24        -0.00000001
  25        -0.00140515
  26         0.00140510
  27        -0.00000005
  28        -0.01937822
  29        -0.00000000
  30         0.00000000
  31         0.03604070
  32         1.12359738
  33        -0.03604044
  34        -1.12358688
  35         0.03604040
  36         1.12358640
  37        -0.03604066
  38        -1.12359689
Sym=    12a  
Ene=     0.3014
Spin= Beta
Occup=    0.00000
   1         0.00000060
   2        -0.00000055
   3        -0.00001009
   4         0.01013983
   5         0.24263016
   6         0.00000000
   7         0.03685483
   8         0.88191189
   9         0.00000001
  10         0.00140515
  11        -0.00140510
  12         0.00000005
  13         0.01937818
  14        -0.00000000
  15         0.00000000
  16        -0.00000060
  17         0.00000055
  18         0.00001009
  19         0.01013980
  20         0.24262951
  21        -0.00000000
  22         0.03685480
  23         0.88191109
  24        -0.00000001
  25        -0.00140515
  26         0.00140510
  27        -0.00000005
  28        -0.01937822
  29        -0.00000000
  30         0.00000000
  31         0.03604070
  32         1.12359738
  33        -0.03604044
  34        -1.12358688
  35         0.03604040
  36         1.12358640
  37        -0.03604066
  38        -1.12359689
Sym=    13a  
Ene=     0.3722
Spin= Alpha
Occup=    0.00000
   1         0.00000002
   2         0.00000000
   3        -0.00000084
   4        -0.01079669
   5        -0.25835877
   6        -0.00000000
   7        -0.06667228
   8        -1.59540968
   9        -0.00000000
  10         0.00103231
  11        -0.00103229
  12        -0.00000000
  13         0.01423646
  14        -0.00000000
  15         0.00000000
  16         0.00000002
  17         0.00000000
  18        -0.00000084
  19         0.01079671
  20         0.25835919
  21        -0.00000000
  22         0.06667239
  23         1.59541236
  24        -0.00000000
  25         0.00103231
  26        -0.00103230
  27        -0.00000000
  28         0.01423651
  29         0.00000000
  30        -0.00000000
  31         0.02786439
  32        -1.51423481
  33        -0.02786443
  34         1.51423588
  35        -0.02786466
  36         1.51423947
  37         0.02786462
  38        -1.51423840
Sym=    13a  
Ene=     0.3722
Spin= Beta
Occup=    0.00000
   1         0.00000002
   2         0.00000000
   3        -0.00000084
   4        -0.01079669
   5        -0.25835877
   6        -0.00000000
   7        -0.06667228
   8        -1.59540968
   9        -0.00000000
  10         0.00103231
  11        -0.00103229
  12        -0.00000000
  13         0.01423646
  14        -0.00000000
  15         0.00000000
  16         0.00000002
  17         0.00000000
  18        -0.00000084
  19         0.01079671
  20         0.25835919
  21        -0.00000000
  22         0.06667239
  23         1.59541236
  24        -0.00000000
  25         0.00103231
  26        -0.00103230
  27        -0.00000000
  28         0.01423651
  29         0.00000000
  30        -0.00000000
  31         0.02786439
  32        -1.51423481
  33        -0.02786443
  34         1.51423588
  35        -0.02786466
  36         1.51423947
  37         0.02786462
  38        -1.51423840
Sym=    14a  
Ene=     0.4154
Spin= Alpha
Occup=    0.00000
   1        -0.05728243
   2         0.04571880
   3         1.02833853
   4         0.28430774
   5        -0.01188144
   6         0.00000000
   7         1.91686880
   8        -0.08010729
   9         0.00000000
  10        -0.02035577
  11         0.02115787
  12         0.00103179
  13         0.00200677
  14         0.00000000
  15         0.00000000
  16         0.05728243
  17        -0.04571883
  18        -1.02833814
  19         0.28430755
  20        -0.01188143
  21        -0.00000000
  22         1.91686883
  23        -0.08010729
  24        -0.00000000
  25         0.02035580
  26        -0.02115794
  27        -0.00103178
  28        -0.00200678
  29         0.00000000
  30         0.00000000
  31         0.04353152
  32         0.61405764
  33         0.04353124
  34         0.61405949
  35        -0.04353148
  36        -0.61405922
  37        -0.04353176
  38        -0.61405736
Sym=    14a  
Ene=     0.4154
Spin= Beta
Occup=    0.00000
   1        -0.05728243
   2         0.04571880
   3         1.02833853
   4         0.28430774
   5        -0.01188144
   6         0.00000000
   7         1.91686880
   8        -0.08010729
   9         0.00000000
  10        -0.02035577
  11         0.02115787
  12         0.00103179
  13         0.00200677
  14         0.00000000
  15         0.00000000
  16         0.05728243
  17        -0.04571883
  18        -1.02833814
  19         0.28430755
  20        -0.01188143
  21        -0.00000000
  22         1.91686883
  23        -0.08010729
  24        -0.00000000
  25         0.02035580
  26        -0.02115794
  27        -0.00103178
  28        -0.00200678
  29         0.00000000
  30         0.00000000
  31         0.04353152
  32         0.61405764
  33         0.04353124
  34         0.61405949
  35        -0.04353148
  36        -0.61405922
  37        -0.04353176
  38        -0.61405736
Sym=    15a  
Ene=     0.7220
Spin= Alpha
Occup=    0.00000
   1        -0.00000003
   2        -0.00000021
   3        -0.00000116
   4        -0.01768669
   5        -0.42324440
   6         0.00000000
   7         0.03331991
   8         0.79738335