[Molden Format]
made by pyscf v[2.13.1]
[Atoms] (AU)
C   1   6     0.00000000000000     1.26026583578789     0.00000000000000
C   2   6     0.00000000000000    -1.26026583578789     0.00000000000000
H   3   1     0.00000000000000     2.32345974964118     1.74287671684983
H   4   1     0.00000000000000    -2.32345974964118     1.74287671684983
H   5   1     0.00000000000000     2.32345974964118    -1.74287671684983
H   6   1     0.00000000000000    -2.32345974964118    -1.74287671684983
[GTO]
1 0
 s    8 1.00
                  6665  0.00069158396281299
                  1000  0.0053257961529341
                   228   0.027060721042034
                 64.71    0.10165684614077
                 21.06     0.2745748236174
                 7.495    0.44829431892377
                 2.797    0.28490261071525
                0.5215   0.015194859206082
 s    8 1.00
                  6665  -0.00029326965268655
                  1000  -0.0023180354739745
                   228  -0.011499786038565
                 64.71  -0.046826727009787
                 21.06   -0.12846616875047
                 7.495   -0.30126627246289
                 2.797   -0.25563070233011
                0.5215      1.093793361012
 s    1 1.00
                0.1596                   1
 s    1 1.00
                0.0469                   1
 p    3 1.00
                 9.439   0.056979251590039
                 2.002    0.31320721150073
                0.5456    0.76037674173753
 p    1 1.00
                0.1517                   1
 p    1 1.00
               0.04041                   1
 d    1 1.00
                  0.55                   1
 d    1 1.00
                 0.151                   1

2 0
 s    8 1.00
                  6665  0.00069158396281299
                  1000  0.0053257961529341
                   228   0.027060721042034
                 64.71    0.10165684614077
                 21.06     0.2745748236174
                 7.495    0.44829431892377
                 2.797    0.28490261071525
                0.5215   0.015194859206082
 s    8 1.00
                  6665  -0.00029326965268655
                  1000  -0.0023180354739745
                   228  -0.011499786038565
                 64.71  -0.046826727009787
                 21.06   -0.12846616875047
                 7.495   -0.30126627246289
                 2.797   -0.25563070233011
                0.5215      1.093793361012
 s    1 1.00
                0.1596                   1
 s    1 1.00
                0.0469                   1
 p    3 1.00
                 9.439   0.056979251590039
                 2.002    0.31320721150073
                0.5456    0.76037674173753
 p    1 1.00
                0.1517                   1
 p    1 1.00
               0.04041                   1
 d    1 1.00
                  0.55                   1
 d    1 1.00
                 0.151                   1

3 0
 s    3 1.00
                 13.01   0.033498726389998
                 1.962    0.23480080117413
                0.4446     0.8136829578829
 s    1 1.00
                 0.122                   1
 s    1 1.00
               0.02974                   1
 p    1 1.00
                 0.727                   1
 p    1 1.00
                 0.141                   1

4 0
 s    3 1.00
                 13.01   0.033498726389998
                 1.962    0.23480080117413
                0.4446     0.8136829578829
 s    1 1.00
                 0.122                   1
 s    1 1.00
               0.02974                   1
 p    1 1.00
                 0.727                   1
 p    1 1.00
                 0.141                   1

5 0
 s    3 1.00
                 13.01   0.033498726389998
                 1.962    0.23480080117413
                0.4446     0.8136829578829
 s    1 1.00
                 0.122                   1
 s    1 1.00
               0.02974                   1
 p    1 1.00
                 0.727                   1
 p    1 1.00
                 0.141                   1

6 0
 s    3 1.00
                 13.01   0.033498726389998
                 1.962    0.23480080117413
                0.4446     0.8136829578829
 s    1 1.00
                 0.122                   1
 s    1 1.00
               0.02974                   1
 p    1 1.00
                 0.727                   1
 p    1 1.00
                 0.141                   1

[5d]
[7f]
[9g]

[MO]
 Sym= A
 Ene=               0
 Spin= Alpha
 Occup=    0.91627
   1    -2.1354666867003e-15
   2    -3.5217906171609e-15
   3    1.3532816660967e-13
   4    -3.2118387306526e-14
   5      0.37384952652017
   6    3.214624286141e-16
   7    6.0577613591959e-15
   8      0.26699260139705
   9    -1.4519320653387e-13
  10    3.4748684256455e-14
  11     0.033140482469333
  12    -3.6596436438086e-15
  13    2.3943216855588e-14
  14    -8.5190744613261e-16
  15    5.2413444310555e-16
  16    1.3639095296589e-15
  17    -1.6339498966622e-15
  18    -0.028351252149662
  19    -1.7638512495655e-14
  20    -7.5606971256037e-15
  21    -3.4615394317096e-15
  22    -1.8572244982937e-14
  23    -0.011968944703825
  24    8.6238633065038e-16
  25    1.3518544531138e-15
  26    -7.5342064697796e-14
  27    5.8376994172393e-14
  28      0.37384952652017
  29    2.254480666601e-16
  30    -6.1727001462629e-15
  31      0.26699260139712
  32    -1.5616949713814e-13
  33    -2.7879477532148e-14
  34     0.033140482469369
  35    -4.7019967523124e-15
  36    -1.9268482537616e-14
  37    -4.7850326239749e-16
  38    2.5298025408269e-16
  39    9.9270429364316e-16
  40    1.3976947088546e-15
  41     0.028351252149665
  42    3.5036892383044e-14
  43    6.0390159522221e-15
  44    -2.5327713204277e-15
  45    2.6611364623496e-14
  46      0.01196894470384
  47    5.600078504308e-15
  48    2.6714127935288e-14
  49    -1.0664438941799e-14
  50     0.014078247806333
  51    7.7833083864662e-16
  52    2.4887739902782e-16
  53    0.0079849905854081
  54    4.154030334979e-16
  55    -5.7863257058765e-15
  56    -7.0249616321536e-15
  57    -7.5763664490224e-14
  58    6.8141989759285e-16
  59     0.014078247806334
  60    5.3026517999022e-16
  61    -4.8267894228245e-16
  62    0.0079849905853782
  63    -1.6657587793747e-14
  64    1.2684807770981e-14
  65    -5.3042903510592e-15
  66    9.1018034646027e-14
  67    2.2278089576457e-14
  68     0.014078247806333
  69    6.4027725099346e-16
  70    -2.5824374535986e-16
  71    0.0079849905853954
  72    -1.6021025985156e-14
  73    2.3065195704861e-14
  74    3.5578606537773e-15
  75    -1.1686428780141e-13
  76    -2.1683859504749e-14
  77     0.014078247806334
  78    6.6118837290201e-16
  79    6.6023574776106e-16
  80    0.0079849905853893
  81    -2.7234916287618e-14
  82    -2.2688954744126e-14
 Sym= A
 Ene=               1
 Spin= Alpha
 Occup=    0.91627
   1    0.0016019786231626
   2     0.090691019352502
   3      0.36054891682677
   4      0.75978041439028
   5    1.4348143845768e-15
   6     0.090998406520795
   7    -7.259083906079e-15
   8    3.7505097455691e-15
   9      0.11619908266589
  10    -2.2885009678058e-13
  11    5.5880093341191e-15
  12      0.28130532689067
  13    -1.6725713268103e-12
  14    -0.005821707181953
  15    -3.5758809402414e-16
  16    9.2935049443065e-15
  17    -0.0061256026379671
  18    -4.358490636551e-16
  19    -0.0039325568316131
  20    -3.9672290525642e-15
  21    -2.7236085225689e-13
  22    -0.015572511524636
  23    -2.5668820149249e-15
  24    0.0016019786229767
  25     0.090691019352223
  26      0.36054891684679
  27      0.75978041425567
  28    -1.7011497000196e-15
  29     -0.09099840652085
  30    -2.8501902538586e-14
  31    -3.6271344717729e-15
  32      -0.1161990826347
  33    3.8374321769732e-13
  34    -5.55557111827e-15
  35     -0.28130532693105
  36    1.3539961203314e-12
  37    -0.0058217071818437
  38    8.7680058523372e-16
  39    -4.1114904477831e-16
  40    -0.0061256026382748
  41    -4.3771051364933e-16
  42    -0.0039325568402643
  43    -4.4031691778043e-15
  44    -2.8833947515539e-13
  45    -0.015572511529057
  46    -2.4809718918253e-15
  47     0.005674430583302
  48     -0.19501506936911
  49     -0.58065890655322
  50    2.0524880359696e-16
  51    -0.00087233871130353
  52    -0.010299412395229
  53    5.1521235733971e-15
  54     0.016549929122772
  55     0.009037328576801
  56    0.0056744305835514
  57     -0.19501506934775
  58     -0.58065890656778
  59    -1.3432530507343e-15
  60    0.00087233871120849
  61    -0.010299412395133
  62    4.0140709338107e-15
  63    -0.016549929118459
  64    0.0090373285744824
  65    0.0056744305832833
  66     -0.19501506937075
  67     -0.58065890655659
  68    4.9516094227342e-16
  69    -0.00087233871130754
  70     0.010299412395223
  71    -3.5886489250743e-15
  72     0.016549929122873
  73    -0.0090373285770468
  74    0.0056744305835882
  75     -0.19501506934571
  76     -0.58065890656583
  77    7.5883352415917e-16
  78    0.0008723387112075
  79     0.010299412395135
  80    -5.6624864604576e-15
  81    -0.016549929118258
  82    -0.0090373285739551
 Sym= A
 Ene=               2
 Spin= Alpha
 Occup=    0.00019
   1    1.5897195020358e-14
   2    2.6521037430074e-14
   3    -6.9507422187634e-13
   4    -2.6388935975581e-13
   5     -0.55854742969685
   6    4.4066148386751e-15
   7    -2.1476635224115e-14
   8     -0.42237797730979
   9    6.5716140409181e-13
  10    6.3909074294536e-14
  11     0.036127937385961
  12    1.3972635346244e-13
  13    2.8983467990931e-14
  14    1.1814313919852e-15
  15    -5.1261901748531e-15
  16    -3.7789811027906e-15
  17    8.9192475123731e-15
  18    0.0031185249378764
  19    1.1429758998441e-13
  20    -2.4123106018565e-15
  21    1.1578605441223e-15
  22    1.0791928891514e-13
  23     0.022414209149043
  24    -1.8079703026749e-14
  25    -2.9706828091962e-14
  26    7.5257211921549e-13
  27    3.2801438734984e-13
  28      0.55854742969696
  29    -3.0136371114299e-15
  30    -1.3171513992656e-14
  31      0.42237797730969
  32    6.2869626230183e-13
  33    -1.203676375526e-13
  34    -0.036127937385957
  35    1.1808134474237e-13
  36    2.3786148931058e-15
  37    2.9419477806882e-15
  38    5.0843526656907e-15
  39    1.4074523284167e-15
  40    -1.1412977789446e-14
  41    0.0031185249378395
  42    -1.1338317320947e-13
  43    1.3031274495732e-14
  44    1.2656169954895e-14
  45    -1.0390495895132e-13
  46     0.022414209148936
  47    -1.5055221881954e-14
  48    -3.166287714323e-13
  49    -8.4336148727353e-14
  50    -0.027453098798998
  51    -4.1644306391494e-15
  52    -5.4949539560338e-15
  53    -0.020300451908259
  54    5.8108136065103e-14
  55    6.3548068774078e-14
  56    -2.0399887475373e-15
  57    3.2855424414104e-13
  58    2.2346908521415e-14
  59     0.027453098799042
  60    -4.066436851336e-15
  61    5.474651448545e-15
  62     0.020300451908277
  63    6.7055834487458e-14
  64    -7.339992692789e-14
  65    1.5590549258657e-14
  66    -1.2772069598318e-13
  67    -2.8597241690845e-14
  68    -0.027453098799002
  69    -3.7218295095865e-15
  70    4.0541056984939e-15
  71    -0.020300451908256
  72    1.4748853590285e-14
  73    -1.3016460368104e-14
  74    6.3775802582664e-15
  75    2.7028578621798e-14
  76    5.8227107617637e-14
  77      0.02745309879905
  78    -5.3286448032368e-15
  79    -4.6635352178719e-15
  80     0.020300451908291
  81    6.3061171152156e-15
  82    -1.8669075408605e-14
 Sym= A
 Ene=               3
 Spin= Alpha
 Occup=    0.00019
   1    -0.049292148980835
   2     -0.45600583967564
   3     -0.92523576523132
   4      0.77704485159617
   5    5.3186062852126e-15
   6     -0.32258430775154
   7    2.0131238176291e-14
   8    9.347202414858e-15
   9      0.43845167830881
  10    2.3091933069969e-13
  11    -6.750333919385e-15
  12     -0.14597549930887
  13    1.9754507058863e-13
  14     0.019916363165261
  15    5.4802850537383e-15
  16    -2.0124995110943e-15
  17     0.015256186488381
  18    -1.9022222917606e-15
  19      0.18502432135798
  20    -7.8509320518247e-15
  21    9.8210315349093e-14
  22      0.15465110300502
  23    -4.9665120316614e-15
  24     0.049292148980841
  25       0.4560058396757
  26      0.92523576522812
  27     -0.77704485159667
  28    7.0144421893132e-15
  29     -0.32258430775175
  30    -5.0464380937166e-14
  31    5.7301193570108e-15
  32      0.43845167830974
  33    2.9384945817972e-13
  34    1.8293690305745e-15
  35     -0.14597549930952
  36    -8.1563916185677e-15
  37    -0.019916363165243
  38    -3.3763046998304e-15
  39    -3.7293195937414e-15
  40    -0.015256186488414
  41    1.4272686644163e-15
  42     -0.18502432135878
  43    -1.1250035535235e-14
  44    -1.1171651501142e-14
  45     -0.15465110300563
  46    -3.0464393621159e-15
  47     -0.10262413830392
  48    -0.091489748072039
  49     0.093562214825381
  50    -1.1558130451964e-15
  51    0.0054629939787428
  52     0.015604956954148
  53    9.7597823265252e-15
  54     0.051650901516447
  55    -0.014886432888702
  56      0.10262413830405
  57      0.09148974807306
  58    -0.093562214825504
  59    -7.9444294417925e-16
  60    0.0054629939787434
  61    -0.015604956954141
  62    9.0129015030521e-15
  63     0.051650901516971
  64     0.014886432888662
  65      -0.1026241383039
  66    -0.091489748071152
  67     0.093562214825855
  68    2.0823718637123e-15
  69    0.0054629939787452
  70     -0.01560495695415
  71    -2.7838844408736e-15
  72     0.051650901516344
  73     0.014886432888948
  74      0.10262413830407
  75     0.091489748073683
  76    -0.093562214825611
  77    1.9594655466162e-15
  78    0.0054629939787476
  79      0.01560495695414
  80    -1.1369366638599e-14
  81     0.051650901517091
  82    -0.014886432888495
 Sym= A
 Ene=               4
 Spin= Alpha
 Occup=    0.00014
   1    -0.048423346806064
   2      0.21317632176847
   3     0.061017709992983
   4    -0.035769255450923
   5    1.5238839352862e-15
   6    -0.036906584360361
   7    -1.215951048585e-14
   8    1.6844543291492e-15
   9     -0.10245371118446
  10    -6.4871413860103e-14
  11    -1.6042089502455e-15
  12    -0.016200461780104
  13    -5.5038176761892e-14
  14    -0.032227832311437
  15    3.2911107327572e-15
  16    -5.4536471894902e-16
  17     0.025364112206181
  18    -1.7333380380863e-16
  19    -0.070353738716049
  20    5.8149623614342e-15
  21    -2.579640118576e-14
  22     0.032421140177645
  23    -2.4075784444563e-16
  24    -0.048423346806058
  25      0.21317632176889
  26     0.061017709992202
  27    -0.035769255450532
  28    -2.9031731398944e-15
  29     0.036906584360112
  30    1.1485254825511e-15
  31    -2.7683772513833e-16
  32      0.10245371118361
  33    -5.4025387062513e-14
  34    2.126540218693e-15
  35      0.01620046178027
  36    2.3023813540924e-14
  37    -0.032227832311437
  38    1.7556444940156e-15
  39    1.503931121271e-15
  40     0.025364112206228
  41    -1.5650987605931e-16
  42     -0.07035373871595
  43    2.0871030061947e-15
  44    -8.7074908377648e-15
  45      0.03242114017783
  46    -1.2350955903353e-15
  47      0.12355081925367
  48      0.13698464564019
  49    0.0091536435729067
  50    9.5998349785645e-16
  51    -0.0088630918403528
  52    -0.015316865960112
  53    -3.7832266943112e-16
  54    -0.017450830367689
  55    -0.019248891726044
  56      0.12355081925398
  57      0.13698464564004
  58    0.0091536435729329
  59    -3.2494452105129e-18
  60    0.0088630918403739
  61    -0.015316865960151
  62    -1.7983647601051e-15
  63     0.017450830367663
  64    -0.019248891726023
  65      0.12355081925369
  66      0.13698464563999
  67    0.0091536435728126
  68    -2.693479827339e-16
  69    -0.0088630918403543
  70     0.015316865960113
  71    1.4469384029682e-15
  72    -0.017450830367666
  73     0.019248891725987
  74      0.12355081925398
  75      0.13698464563993
  76    0.0091536435729695
  77    2.9931491624454e-16
  78    0.0088630918403732
  79      0.01531686596015
  80    -3.6982219054307e-16
  81     0.017450830367635
  82     0.019248891725985
 Sym= A
 Ene=               5
 Spin= Alpha
 Occup=    0.00014
   1    -6.8515432364292e-15
   2    -1.2766407813049e-14
   3    2.7047796531841e-13
   4    -4.2390253789466e-13
   5      0.17493096040241
   6    2.5409005555497e-15
   7    -2.8922153569108e-14
   8      0.53979614911254
   9    -3.1813317203363e-13
  10    4.1459040467939e-13
  11     -0.53627614959106
  12    6.3055793678043e-14
  13    -4.6939348921588e-13
  14    -3.0126753177855e-16
  15    -7.255446160988e-17
  16    2.650657570625e-14
  17    -2.631715166012e-15
  18    -0.0087689751665589
  19    -6.4183828981929e-14
  20    -4.4955130002118e-14
  21    -5.4968781856306e-14
  22    -4.5021751510301e-14
  23      0.21838347599419
  24    5.8855500654787e-15
  25    9.3625689859903e-15
  26    -2.6404281400703e-13
  27    4.2739651133175e-13
  28      0.17493096040248
  29    5.0482248967868e-15
  30    -2.8703500247819e-14
  31      0.53979614911127
  32    -3.2101115886671e-13
  33    1.7195884116542e-13
  34     -0.53627614959643
  35    5.0253766626943e-14
  36    -3.6524402979223e-13
  37    1.5751334280703e-15
  38    2.2546872216903e-15
  39    -1.999369208085e-14
  40    2.5728057605499e-15
  41    0.0087689751666373
  42    6.4443973104715e-14
  43    -3.3468813363127e-14
  44    -3.4193982718309e-14
  45    4.8983718324578e-14
  46     -0.21838347599567
  47    -3.1918479660401e-14
  48    -1.2924145518871e-13
  49    5.7958272106939e-13
  50     0.025426908772078
  51    2.4859251443953e-15
  52    5.4506773156778e-15
  53     -0.20864684050087
  54    4.6766547027096e-14
  55    1.3903051824924e-13
  56    -4.4692660785542e-14
  57    -3.7120022953734e-13
  58    5.0604169699297e-13
  59     0.025426908772127
  60    7.8397612876641e-16
  61    4.816709523799e-15
  62     -0.20864684050095
  63    -2.6985866468102e-14
  64    1.7134803145361e-13
  65    3.7643994460847e-14
  66    4.9255888658036e-13
  67    -5.4769485061727e-13
  68     0.025426908772085
  69    -1.396194309458e-15
  70    4.2037599523868e-15
  71     -0.20864684050097
  72    -9.48021695317e-14
  73    1.8262243166528e-13
  74    3.777355657371e-14
  75    1.6005859099053e-14
  76    -5.4569658555665e-13
  77     0.025426908772118
  78    2.3908870707286e-16
  79    5.502173145719e-15
  80     -0.20864684050103
  81    -2.1233537708368e-14
  82    1.2470315992301e-13
 Sym= A
 Ene=               6
 Spin= Alpha
 Occup=    0.00004
   1      0.16676094956006
   2      0.54536907090475
   3      0.82389416608473
   4      0.13919150234352
   5    -4.3638489156411e-15
   6     0.014909858368775
   7    -9.3324479769392e-15
   8    1.8530091883518e-14
   9      0.50412287695338
  10    -7.8227968946323e-13
  11    1.006471063709e-14
  12      0.16308876207259
  13    -7.0750158833337e-13
  14    -0.055360838945732
  15    8.3400899906268e-15
  16    -1.3330669202663e-17
  17      0.10256640840557
  18    9.3289546601045e-16
  19      0.18598146089552
  20    -7.0200343706565e-15
  21    -2.1773664497532e-13
  22     -0.33825440251733
  23    -1.1291528185381e-14
  24      0.16676094956001
  25      0.54536907090472
  26      0.82389416609442
  27          0.1391915023
  28    -3.2414812594387e-16
  29    -0.014909858368794
  30    -4.9960475693936e-14
  31    -1.7159478047431e-14
  32       -0.504122876937
  33    5.6870282896845e-13
  34    -1.422064942182e-14
  35     -0.16308876208418
  36    5.8151614842143e-13
  37    -0.055360838945662
  38    -2.1182993398073e-15
  39    3.0670592648034e-15
  40      0.10256640840538
  41    -3.1259026513455e-16
  42      0.18598146089142
  43    1.2669694245851e-14
  44    -1.9108361687921e-13
  45      -0.3382544025198
  46    -7.8996963008978e-15
  47    -0.015534234012482
  48     -0.67954364267017
  49    -0.042062034854979
  50    -6.0384138647825e-16
  51    -0.0087614317497578
  52    0.0034417703408794
  53    1.1134589301724e-15
  54     0.034179586758588
  55      0.18334456503125
  56    -0.015534234012258
  57     -0.67954364266095
  58    -0.042062034858586
  59    1.6868150336723e-15
  60    0.0087614317496935
  61    0.0034417703409104
  62    3.1592070551675e-15
  63    -0.034179586756585
  64      0.18334456503021
  65    -0.015534234012558
  66     -0.67954364267272
  67    -0.042062034855964
  68    -1.7740826375337e-15
  69    -0.0087614317497488
  70    -0.0034417703408788
  71    -3.9599444742269e-15
  72     0.034179586758978
  73     -0.18334456503187
  74    -0.015534234012196
  75     -0.67954364265911
  76    -0.042062034857918
  77    2.474250576771e-16
  78    0.0087614317496913
  79    -0.0034417703409093
  80    5.7238737607289e-15
  81    -0.034179586756326
  82     -0.18334456502976
 Sym= A
 Ene=               7
 Spin= Alpha
 Occup=    0.00004
   1    1.7646415371235e-15
   2    -5.5541457753252e-15
   3    -1.5963575586857e-13
   4    2.9500068746758e-14
   5     -0.44069751877342
   6    -7.1767848271888e-15
   7    -1.811155642112e-14
   8      -0.1510721993987
   9    1.5895236376869e-13
  10    7.6754939480747e-14
  11     -0.10082728994573
  12    -1.4211619050533e-14
  13    -1.5965950447278e-13
  14    8.9940410480987e-16
  15    2.9824247858172e-15
  16    8.0865868267939e-15
  17    2.3440317846954e-15
  18     0.032698705099316
  19    2.2290152738393e-14
  20    -1.9561906591756e-14
  21    -1.3292902049951e-14
  22    2.2049946629198e-14
  23     0.034718926711707
  24    -3.116772437686e-16
  25    6.7195080321114e-15
  26    8.9645071281687e-14
  27    -5.9734985636513e-14
  28     -0.44069751877332
  29    -3.6051585324435e-15
  30    -1.3042540245076e-14
  31     -0.15107219939908
  32    1.705975466604e-13
  33    7.0413782487374e-14
  34     -0.10082728994666
  35    -1.7468819486113e-14
  36    -1.0106259065471e-13
  37    1.3338579605018e-15
  38    1.1043859261457e-15
  39    -7.4784314859293e-15
  40    -1.8838360034567e-15
  41    -0.032698705099318
  42    -4.2193020730839e-14
  43    -7.7179537360529e-15
  44    -2.9458375536481e-15
  45    -2.9673220520487e-14
  46    -0.034718926712156
  47    -1.664901838385e-14
  48    -8.0744077218082e-14
  49     1.65785132318e-13
  50    -0.0082635811228731
  51    -9.1106787713254e-16
  52    6.7005149510929e-16
  53    -0.014050685442408
  54    2.4985197958444e-14
  55    5.0179216229745e-14
  56    -3.3632307910562e-15
  57    5.5810992501499e-14
  58    1.2728397515127e-13
  59    -0.008263581122856
  60    -7.9409437904013e-16
  61    1.0899285557437e-15
  62    -0.014050685442424
  63    2.0774712297485e-14
  64    2.6959230153255e-14
  65    7.9997428793394e-15
  66    -3.0785262641044e-14
  67    -1.4145206102742e-13
  68    -0.0082635811228689
  69    -1.0589381760148e-15
  70    1.0062356293702e-15
  71    -0.014050685442443
  72    -2.0539666649715e-15
  73    1.8789571184323e-14
  74    1.5617725101358e-14
  75    1.4847520229224e-13
  76    -1.435557290914e-13
  77    -0.008263581122856
  78    -1.2180070931843e-15
  79    -5.0459962056053e-17
  80    -0.014050685442451
  81    3.6129679405644e-14
  82    6.6482291387872e-14
 Sym= A
 Ene=               8
 Spin= Alpha
 Occup=    0.00003
   1    -2.1636791045496e-14
   2    -3.7446126193462e-14
   3    1.2257500021028e-12
   4    -9.1464743781904e-13
   5      0.63758030893222
   6    -2.8799385955399e-14
   7    -2.8290017623706e-15
   8     -0.37132397918066
   9    -1.3397063719416e-12
  10    7.8490345691423e-14
  11     -0.19812191081069
  12    1.8064426384856e-13
  13    -3.6526622401968e-14
  14    -1.3124380198267e-15
  15    2.9164337846679e-14
  16    3.6384842970418e-15
  17    -1.5070566501167e-14
  18    -0.060351233329566
  19    -2.4173328275567e-13
  20    1.6994250638874e-14
  21    3.5590919425757e-14
  22    -1.8820165737913e-13
  23       0.2068503728868
  24    1.4567541075996e-14
  25    2.788840583202e-14
  26    -1.0749777321525e-12
  27    9.3612003027744e-13
  28      0.63758030893197
  29    -2.9192763198252e-14
  30    -4.9840715565703e-14
  31     -0.37132397918183
  32    -1.3572812395777e-12
  33    1.1582608491567e-13
  34     -0.19812191081061
  35    1.9936734994174e-13
  36    1.0682788763342e-13
  37    -3.9036577617872e-15
  38    2.8688313208528e-14
  39    -1.9951739541143e-15
  40    1.5820105372713e-14
  41     0.060351233329279
  42    2.8279995357253e-13
  43    2.3157959448489e-15
  44    -5.6716225369248e-15
  45    2.0686728698219e-13
  46     -0.20685037288728
  47    -1.4764009975967e-14
  48    4.3996039575262e-13
  49    -4.3982707359782e-15
  50     0.020775211451344
  51    1.0056277849336e-14
  52    1.0034387961522e-14
  53     0.020266300449044
  54    -8.2695321113649e-14
  55    -5.8938244720155e-14
  56    -3.3260079427474e-14
  57    -8.323446351893e-13
  58    -6.9258226621757e-14
  59     0.020775211451418
  60    8.7671163410174e-15
  61    -9.086538995539e-15
  62     0.020266300449223
  63    -1.6609148060042e-13
  64    1.5271617870316e-13
  65    9.4289525409835e-15
  66    7.4545519958354e-13
  67    -5.3910715662938e-14
  68     0.020775211451346
  69    5.7363888749348e-15
  70    -6.3136253892611e-15
  71      0.02026630044908
  72    -1.2535464974161e-13
  73    1.4677565783175e-13
  74    2.9307618527104e-14
  75    -5.1163278223536e-13
  76    1.2626850962057e-13
  77     0.020775211451431
  78    9.8415273630076e-15
  79    1.0074086061026e-14
  80     0.020266300449222
  81    -1.1850576798691e-13
  82    -6.8399933847081e-14
 Sym= A
 Ene=               9
 Spin= Alpha
 Occup=    0.00003
   1     0.057245554250386
   2       0.3594739824827
   3     -0.18584068758664
   4     -0.40773168670548
   5    2.6450113640779e-14
   6      0.50361961220629
   7    -5.893483583704e-14
   8    -1.6320395232282e-14
   9    -0.0099182006826635
  10    1.1899952234373e-14
  11    6.9284483285062e-14
  12    -0.061281747497977
  13    2.3241021177419e-13
  14    0.0057386602636163
  15    -6.1126511797882e-15
  16    1.3594830194131e-14
  17    0.0043887026803571
  18    5.9757831373715e-15
  19      -0.1302064001047
  20    2.8964707094017e-14
  21    -6.335989489523e-14
  22    -0.035433203582438
  23    -9.3547186696699e-15
  24     0.057245554250434
  25      0.35947398248265
  26     -0.18584068759139
  27     -0.40773168667046
  28    -2.7362367864345e-14
  29     -0.50361961220615
  30    -8.9860558341373e-14
  31    1.7248430953988e-14
  32    0.0099182006771411
  33    -3.6569370660871e-13
  34    -7.0344150285491e-14
  35     0.061281747509358
  36    -2.4883745514985e-13
  37     0.005738660263573
  38    7.2316821532639e-15
  39    -2.0919343002756e-15
  40    0.0043887026803873
  41    5.1761945741195e-15
  42     -0.13020640010275
  43    -5.7669164192797e-14
  44    -2.2836385223124e-14
  45    -0.035433203581619
  46    -1.0420688999834e-14
  47     0.087822603879629
  48      0.14420191386194
  49      0.19560610794768
  50    -3.2894604734869e-15
  51    0.0062479262323031
  52    -0.00018853803539616
  53    1.0894354986352e-14
  54    -0.030680331056188
  55     0.016853881843659
  56     0.087822603879539
  57      0.14420191385821
  58      0.19560610795202
  59    -3.757424441487e-15
  60    -0.0062479262322887
  61    -0.00018853803541178
  62    1.1375160228042e-14
  63     0.030680331055425
  64     0.016853881843706
  65     0.087822603879628
  66      0.14420191386191
  67      0.19560610794832
  68    -1.207102526845e-15
  69    0.0062479262322988
  70    0.00018853803540146
  71    4.7440634258037e-15
  72    -0.030680331056238
  73    -0.016853881843663
  74     0.087822603879556
  75       0.1442019138573
  76      0.19560610795161
  77    8.2406312354232e-15
  78    -0.0062479262322944
  79    0.00018853803540405
  80    -3.1190585126368e-14
  81     0.030680331055203
  82    -0.016853881843989
 Sym= A
 Ene=              10
 Spin= Alpha
 Occup=    0.00002
   1     0.014370471719464
   2     -0.17123186134314
   3     -0.31091268535984
   4      0.40368950680343
   5    -3.1819511085785e-14
   6     -0.15522205055665
   7    6.4561106381446e-13
   8    1.2999954459048e-14
   9      0.12609426918607
  10    1.2544055266651e-13
  11    1.0151156813359e-14
  12    -0.093740348140617
  13    -5.1924490994505e-14
  14     -0.02276559855997
  15    -2.3827821096174e-14
  16    7.420492063792e-14
  17     0.019383487723689
  18    2.4838800404326e-15
  19     0.083951877522462
  20    -3.1697977810509e-14
  21    -1.5354349788984e-14
  22     0.011206028650838
  23    -1.5540308318445e-14
  24     -0.01437047171947
  25      0.17123186134299
  26      0.31091268536184
  27     -0.40368950680242
  28    -3.0429562460955e-14
  29     -0.15522205055502
  30    -6.1559186113043e-13
  31    1.7657468889391e-14
  32      0.12609426918598
  33    -1.3158065887055e-13
  34    1.0787860731887e-14
  35    -0.093740348140816
  36    4.2509433970933e-14
  37     0.022765598559852
  38    -2.8915019509671e-14
  39     7.44568524679e-14
  40    -0.019383487723634
  41    -6.1964508825567e-16
  42    -0.083951877522117
  43    -3.5657175553753e-14
  44    -6.6917148474995e-15
  45    -0.011206028650792
  46    1.2722789245215e-14
  47     -0.21049048345053
  48     -0.18982990085696
  49     0.013398712290677
  50    -4.2682379474149e-15
  51    0.0071058921293261
  52     0.021260366796059
  53    4.013981800153e-15
  54      0.03085607116588
  55     0.011482745910781
  56      0.21049048344964
  57       0.1898299008553
  58    -0.013398712290904
  59    -3.8367256396613e-15
  60    0.0071058921293238
  61    -0.021260366795986
  62    4.7976485624963e-15
  63     0.030856071165594
  64    -0.011482745910469
  65     -0.21049048345158
  66     -0.18982990085772
  67     0.013398712290551
  68    2.2856096743085e-16
  69    0.0071058921293759
  70    -0.021260366796083
  71    -5.7086624935484e-15
  72     0.030856071165933
  73    -0.011482745910855
  74      0.21049048345064