[Molden Format]
[N_Atoms]
                     6
[Atoms] (AU)
C1          1      6          -3.74112861      1.41379860      0.00000000
C2          2      6          -1.23932586      1.30918336      0.00000000
H3          3      1          -4.89035232     -0.28126684      0.00000000
H4          4      1          -4.74497569      3.19879799      0.00000000
H5          5      1          -0.23547877     -0.47581603      0.00000000
H6          6      1          -0.09010214      3.00424880      0.00000000
[Charge] (Mulliken)
  0.000000000000000E+000
  0.000000000000000E+000
  0.000000000000000E+000
  0.000000000000000E+000
  0.000000000000000E+000
  0.000000000000000E+000
[GTO] (AU)
   1
   s   6
  3.047524880E+03  1.834737132E-03
  4.573695180E+02  1.403732281E-02
  1.039486850E+02  6.884262227E-02
  2.921015530E+01  2.321844432E-01
  9.286662960E+00  4.679413484E-01
  3.163926960E+00  3.623119853E-01
   s   3
  7.868272350E+00 -1.193324198E-01
  1.881288540E+00 -1.608541517E-01
  5.442492580E-01  1.143456438E+00
   s   1
  1.687144782E-01  1.000000000E+00
   p   3
  7.868272350E+00  6.899906659E-02
  1.881288540E+00  3.164239610E-01
  5.442492580E-01  7.443082909E-01
   p   1
  1.687144782E-01  1.000000000E+00
   d   1
  8.000000000E-01  1.000000000E+00
 
   2
   s   6
  3.047524880E+03  1.834737132E-03
  4.573695180E+02  1.403732281E-02
  1.039486850E+02  6.884262227E-02
  2.921015530E+01  2.321844432E-01
  9.286662960E+00  4.679413484E-01
  3.163926960E+00  3.623119853E-01
   s   3
  7.868272350E+00 -1.193324198E-01
  1.881288540E+00 -1.608541517E-01
  5.442492580E-01  1.143456438E+00
   s   1
  1.687144782E-01  1.000000000E+00
   p   3
  7.868272350E+00  6.899906659E-02
  1.881288540E+00  3.164239610E-01
  5.442492580E-01  7.443082909E-01
   p   1
  1.687144782E-01  1.000000000E+00
   d   1
  8.000000000E-01  1.000000000E+00
 
   3
   s   3
  1.873113696E+01  3.349460434E-02
  2.825394365E+00  2.347269535E-01
  6.401216923E-01  8.137573261E-01
   s   1
  1.612777588E-01  1.000000000E+00
 
   4
   s   3
  1.873113696E+01  3.349460434E-02
  2.825394365E+00  2.347269535E-01
  6.401216923E-01  8.137573261E-01
   s   1
  1.612777588E-01  1.000000000E+00
 
   5
   s   3
  1.873113696E+01  3.349460434E-02
  2.825394365E+00  2.347269535E-01
  6.401216923E-01  8.137573261E-01
   s   1
  1.612777588E-01  1.000000000E+00
 
   6
   s   3
  1.873113696E+01  3.349460434E-02
  2.825394365E+00  2.347269535E-01
  6.401216923E-01  8.137573261E-01
   s   1
  1.612777588E-01  1.000000000E+00
 
[MO]
Sym=     1a  
Ene=   -11.3510
Spin= Alpha
Occup=    2.00000
   1         0.70240090
   2         0.01433979
   3         0.00093024
   4         0.00190491
   5        -0.00007966
   6         0.00000000
   7         0.00118962
   8        -0.00004975
   9         0.00000000
  10         0.00000000
  11         0.00000000
  12        -0.00000000
  13        -0.00000000
  14         0.00000000
  15         0.00000000
  16         0.70240090
  17         0.01433979
  18         0.00093024
  19        -0.00190491
  20         0.00007966
  21        -0.00000000
  22        -0.00118962
  23         0.00004975
  24        -0.00000000
  25         0.00000000
  26         0.00000000
  27         0.00000000
  28         0.00000000
  29         0.00000000
  30        -0.00000000
  31         0.00154519
  32         0.00172528
  33         0.00154517
  34         0.00172527
  35         0.00154517
  36         0.00172527
  37         0.00154519
  38         0.00172528
Sym=     2a  
Ene=   -11.3300
Spin= Alpha
Occup=    2.00000
   1        -0.70439217
   2        -0.01172834
   3         0.00201987
   4         0.00187382
   5        -0.00007835
   6         0.00000000
   7         0.00117020
   8        -0.00004893
   9        -0.00000000
  10        -0.00000000
  11        -0.00000000
  12        -0.00000000
  13        -0.00000000
  14         0.00000000
  15        -0.00000000
  16         0.70439217
  17         0.01172834
  18        -0.00201987
  19         0.00187382
  20        -0.00007835
  21        -0.00000000
  22         0.00117020
  23        -0.00004893
  24         0.00000000
  25        -0.00000000
  26        -0.00000000
  27        -0.00000000
  28        -0.00000000
  29         0.00000000
  30        -0.00000000
  31        -0.00116520
  32        -0.00130100
  33        -0.00116523
  34        -0.00130104
  35         0.00116523
  36         0.00130104
  37         0.00116520
  38         0.00130100
Sym=     3a  
Ene=    -1.4601
Spin= Alpha
Occup=    2.00000
   1        -0.15676946
   2         0.19986621
   3         0.22587854
   4         0.04917056
   5        -0.00205682
   6        -0.00000000
   7         0.03070699
   8        -0.00128448
   9         0.00000000
  10         0.00000000
  11         0.00000000
  12         0.00000000
  13        -0.00000000
  14        -0.00000000
  15        -0.00000000
  16        -0.15676946
  17         0.19986621
  18         0.22587854
  19        -0.04917056
  20         0.00205682
  21         0.00000000
  22        -0.03070699
  23         0.00128448
  24        -0.00000000
  25        -0.00000000
  26        -0.00000000
  27        -0.00000000
  28         0.00000000
  29        -0.00000000
  30         0.00000000
  31         0.08453676
  32         0.09438967
  33         0.08453496
  34         0.09438765
  35         0.08453496
  36         0.09438765
  37         0.08453676
  38         0.09438967
Sym=     4a  
Ene=    -1.0250
Spin= Alpha
Occup=    2.00000
   1         0.11492753
   2        -0.16435478
   3        -0.18544594
   4         0.15192254
   5        -0.00634909
   6        -0.00000000
   7         0.09487555
   8        -0.00396500
   9        -0.00000000
  10         0.00000000
  11        -0.00000000
  12        -0.00000000
  13        -0.00000000
  14         0.00000000
  15        -0.00000000
  16        -0.11492753
  17         0.16435478
  18         0.18544594
  19         0.15192254
  20        -0.00634909
  21        -0.00000000
  22         0.09487555
  23        -0.00396500
  24        -0.00000000
  25        -0.00000000
  26        -0.00000000
  27        -0.00000000
  28        -0.00000000
  29         0.00000000
  30        -0.00000000
  31        -0.12290965
  32        -0.13723498
  33        -0.12291216
  34        -0.13723779
  35         0.12291216
  36         0.13723779
  37         0.12290965
  38         0.13723498
Sym=     5a  
Ene=    -0.8451
Spin= Alpha
Occup=    2.00000
   1        -0.00000150
   2         0.00000264
   3         0.00000297
   4         0.01139896
   5         0.27269304
   6         0.00000000
   7         0.00711865
   8         0.17029666
   9         0.00000000
  10         0.00000000
  11         0.00000000
  12         0.00000000
  13        -0.00000000
  14         0.00000000
  15        -0.00000000
  16         0.00000150
  17        -0.00000264
  18        -0.00000297
  19         0.01139896
  20         0.27269304
  21         0.00000000
  22         0.00711865
  23         0.17029666
  24         0.00000000
  25        -0.00000000
  26        -0.00000000
  27        -0.00000000
  28        -0.00000000
  29         0.00000000
  30        -0.00000000
  31        -0.12473839
  32        -0.13927687
  33         0.12473535
  34         0.13927348
  35        -0.12473535
  36        -0.13927348
  37         0.12473839
  38         0.13927687
Sym=     6a  
Ene=    -0.6096
Spin= Alpha
Occup=    2.00000
   1         0.04018541
   2        -0.04553600
   3        -0.05155809
   4        -0.36124650
   5         0.01514293
   6        -0.00000000
   7        -0.22559825
   8         0.00945675
   9        -0.00000000
  10        -0.00000000
  11         0.00000000
  12        -0.00000000
  13        -0.00000000
  14         0.00000000
  15        -0.00000000
  16         0.04018541
  17        -0.04553600
  18        -0.05155809
  19         0.36124650
  20        -0.01514293
  21        -0.00000000
  22         0.22559825
  23        -0.00945675
  24        -0.00000000
  25         0.00000000
  26        -0.00000000
  27         0.00000000
  28         0.00000000
  29         0.00000000
  30         0.00000000
  31         0.10893299
  32         0.12162932
  33         0.10899583
  34         0.12169949
  35         0.10899583
  36         0.12169949
  37         0.10893299
  38         0.12162932
Sym=     7a  
Ene=    -0.5723
Spin= Alpha
Occup=    2.00000
   1        -0.00000000
   2         0.00000000
   3         0.00000000
   4         0.00000000
   5         0.00000000
   6         0.42522029
   7         0.00000000
   8        -0.00000000
   9         0.26554985
  10        -0.00000000
  11        -0.00000000
  12        -0.00000000
  13        -0.00000000
  14        -0.00000000
  15        -0.00000000
  16         0.00000000
  17         0.00000000
  18        -0.00000000
  19         0.00000000
  20        -0.00000000
  21         0.42522029
  22         0.00000000
  23         0.00000000
  24         0.26554985
  25        -0.00000000
  26         0.00000000
  27         0.00000000
  28         0.00000000
  29        -0.00000000
  30         0.00000000
  31         0.00000000
  32        -0.00000000
  33         0.00000000
  34         0.00000000
  35        -0.00000000
  36         0.00000000
  37        -0.00000000
  38        -0.00000000
Sym=     8a  
Ene=    -0.5554
Spin= Alpha
Occup=    2.00000
   1         0.00000862
   2        -0.00001252
   3        -0.00001413
   4        -0.01178269
   5        -0.28036654
   6        -0.00000000
   7        -0.00735828
   8        -0.17508876
   9        -0.00000000
  10        -0.00000000
  11        -0.00000000
  12        -0.00000000
  13         0.00000000
  14         0.00000000
  15         0.00000000
  16         0.00000862
  17        -0.00001252
  18        -0.00001413
  19         0.01178269
  20         0.28036654
  21        -0.00000000
  22         0.00735828
  23         0.17508876
  24        -0.00000000
  25         0.00000000
  26         0.00000000
  27        -0.00000000
  28        -0.00000000
  29        -0.00000000
  30        -0.00000000
  31         0.18684359
  32         0.20862054
  33        -0.18680459
  34        -0.20857700
  35        -0.18680459
  36        -0.20857700
  37         0.18684359
  38         0.20862054
Sym=     9a  
Ene=    -0.2976
Spin= Alpha
Occup=    0.00000
   1        -0.00000000
   2         0.00000000
   3         0.00000000
   4         0.00000000
   5         0.00000000
   6        -0.58967645
   7         0.00000000
   8        -0.00000000
   9        -0.36825264
  10        -0.00000000
  11        -0.00000000
  12        -0.00000000
  13        -0.00000000
  14        -0.00000000
  15         0.00000000
  16         0.00000000
  17         0.00000000
  18        -0.00000000
  19         0.00000000
  20        -0.00000000
  21         0.58967645
  22         0.00000000
  23         0.00000000
  24         0.36825264
  25        -0.00000000
  26         0.00000000
  27         0.00000000
  28         0.00000000
  29        -0.00000000
  30         0.00000000
  31        -0.00000000
  32        -0.00000000
  33        -0.00000000
  34         0.00000000
  35         0.00000000
  36         0.00000000
  37        -0.00000000
  38        -0.00000000
Sym=    10a  
Ene=    -0.1487
Spin= Alpha
Occup=    0.00000
   1        -0.00001003
   2         0.00004531
   3         0.00005066
   4         0.02184174
   5         0.52165695
   6        -0.00000000
   7         0.01364015
   8         0.32577449
   9         0.00000000
  10        -0.00000000
  11        -0.00000000
  12         0.00000000
  13         0.00000000
  14        -0.00000000
  15        -0.00000000
  16         0.00001003
  17        -0.00004531
  18        -0.00005066
  19         0.02184174
  20         0.52165695
  21         0.00000000
  22         0.01364015
  23         0.32577449
  24        -0.00000000
  25         0.00000000
  26        -0.00000000
  27        -0.00000000
  28        -0.00000000
  29        -0.00000000
  30         0.00000000
  31         0.37061085
  32         0.41380620
  33        -0.37061556
  34        -0.41381145
  35         0.37061556
  36         0.41381145
  37        -0.37061085
  38        -0.41380620
Sym=    11a  
Ene=    -0.1346
Spin= Alpha
Occup=    0.00000
   1         0.09437245
   2        -0.47371807
   3        -0.52943835
   4         0.38712069
   5        -0.01614158
   6         0.00000000
   7         0.24175667
   8        -0.01008041
   9        -0.00000000
  10         0.00000000
  11        -0.00000000
  12        -0.00000000
  13         0.00000000
  14        -0.00000000
  15         0.00000000
  16         0.09437245
  17        -0.47371807
  18        -0.52943835
  19        -0.38712069
  20         0.01614158
  21         0.00000000
  22        -0.24175667
  23         0.01008041
  24        -0.00000000
  25        -0.00000000
  26        -0.00000000
  27        -0.00000000
  28         0.00000000
  29        -0.00000000
  30        -0.00000000
  31         0.34337106
  32         0.38339156
  33         0.34334211
  34         0.38335923
  35         0.34334211
  36         0.38335923
  37         0.34337106
  38         0.38339156
Sym=    12a  
Ene=    -0.1344
Spin= Alpha
Occup=    0.00000
   1         0.11357901
   2        -0.47233839
   3        -0.52831340
   4         0.32409505
   5        -0.01352906
   6        -0.00000000
   7         0.20239719
   8        -0.00844889
   9         0.00000000
  10        -0.00000000
  11         0.00000000
  12         0.00000000
  13        -0.00000000
  14         0.00000000
  15         0.00000000
  16        -0.11357901
  17         0.47233839
  18         0.52831340
  19         0.32409505
  20        -0.01352906
  21        -0.00000000
  22         0.20239719
  23        -0.00844889
  24        -0.00000000
  25        -0.00000000
  26        -0.00000000
  27        -0.00000000
  28        -0.00000000
  29         0.00000000
  30         0.00000000
  31         0.36501921
  32         0.40756284
  33         0.36500917
  34         0.40755163
  35        -0.36500917
  36        -0.40755163
  37        -0.36501921
  38        -0.40756284
Sym=    13a  
Ene=    -0.1090
Spin= Alpha
Occup=    0.00000
   1         0.00000378
   2        -0.00002763
   3        -0.00003084
   4        -0.03089806
   5        -0.73990511
   6        -0.00000000
   7        -0.01929582
   8        -0.46207035
   9         0.00000000
  10         0.00000000
  11         0.00000000
  12         0.00000000
  13         0.00000000
  14         0.00000000
  15         0.00000000
  16         0.00000378
  17        -0.00002763
  18        -0.00003084
  19         0.03089806
  20         0.73990511
  21         0.00000000
  22         0.01929582
  23         0.46207035
  24        -0.00000000
  25        -0.00000000
  26         0.00000000
  27         0.00000000
  28        -0.00000000
  29        -0.00000000
  30        -0.00000000
  31        -0.36083294
  32        -0.40288865
  33         0.36086937
  34         0.40292933
  35         0.36086937
  36         0.40292933
  37        -0.36083294
  38        -0.40288865
Sym=    14a  
Ene=    -0.0982
Spin= Alpha
Occup=    0.00000
   1        -0.09837635
   2         0.57882710
   3         0.64654814
   4         0.81660830
   5        -0.03418294
   6        -0.00000000
   7         0.50997145
   8        -0.02134723
   9        -0.00000000
  10        -0.00000000
  11        -0.00000000
  12        -0.00000000
  13        -0.00000000
  14        -0.00000000
  15        -0.00000000
  16         0.09837635
  17        -0.57882710
  18        -0.64654814
  19         0.81660830
  20        -0.03418294
  21        -0.00000000
  22         0.50997145
  23        -0.02134723
  24         0.00000000
  25         0.00000000
  26         0.00000000
  27         0.00000000
  28        -0.00000000
  29         0.00000000
  30         0.00000000
  31         0.04066630
  32         0.04540603
  33         0.04072565
  34         0.04547229
  35        -0.04072565
  36        -0.04547229
  37        -0.04066630
  38        -0.04540603
Sym=    15a  
Ene=     4.1716
Spin= Alpha
Occup=    0.00000
   1        -0.05487476
   2        -0.62116049
   3         5.13588510
   4        -0.29212045
   5         0.01222581
   6        -0.00000000
   7         3.59545497
   8        -0.15043934
   9         0.00000000
  10         0.28616860
  11        -0.11316805
  12        -0.10328630
  13        -0.01930707
  14         0.00000000
  15         0.00000000
  16         0.05487476
  17         0.62116049
  18        -5.13588510
  19        -0.29212045
  20         0.01222581
  21         0.00000000
  22         3.59545497
  23        -0.15043934
  24        -0.00000000
  25        -0.28616860
  26         0.11316805
  27         0.10328630
  28         0.01930707
  29        -0.00000000
  30        -0.00000000
  31         0.08161870
  32         0.24581368
  33         0.08159348
  34         0.24606743
  35        -0.08159348
  36        -0.24606743
  37        -0.08161870
  38        -0.24581368
Sym=    16a  
Ene=     4.2299
Spin= Alpha
Occup=    0.00000
   1        -0.00000032
   2         0.00000096
   3        -0.00013302
   4         0.01745685
   5         0.41802161
   6        -0.00000000
   7        -0.12061469
   8        -2.88805549
   9         0.00000000
  10         0.00129068
  11        -0.00129061
  12         0.00000390
  13         0.01786952
  14         0.00000000
  15        -0.00000000
  16        -0.00000032
  17         0.00000096
  18        -0.00013302
  19        -0.01745685
  20        -0.41802161
  21         0.00000000
  22         0.12061469
  23         2.88805549
  24        -0.00000000
  25         0.00129068
  26        -0.00129061
  27         0.00000390
  28         0.01786952
  29         0.00000000
  30         0.00000000
  31         0.26205729
  32        -2.05091822
  33        -0.26209699
  34         2.05108929
  35        -0.26209699
  36         2.05108929
  37         0.26205729
  38        -2.05091822
Sym=    17a  
Ene=     4.3358
Spin= Alpha
Occup=    0.00000
   1         0.07703712
   2         0.87146552
   3        -2.71947870
   4        -0.09300837
   5         0.00387864
   6        -0.00000000
   7         0.61701753
   8        -0.02573922
   9         0.00000000
  10         0.22084919
  11         0.18071492
  12         0.25726316
  13        -0.00193682
  14         0.00000000
  15        -0.00000000
  16         0.07703712
  17         0.87146552
  18        -2.71947870
  19         0.09300837
  20        -0.00387864
  21         0.00000000
  22        -0.61701753
  23         0.02573922
  24        -0.00000000
  25         0.22084919
  26         0.18071492
  27         0.25726316
  28        -0.00193682
  29         0.00000000
  30         0.00000000
  31        -0.18382603
  32         1.21609953
  33        -0.18381019
  34         1.21603013
  35        -0.18381019
  36         1.21603013
  37        -0.18382603
  38         1.21609953
Sym=    18a  
Ene=     4.3755
Spin= Alpha
Occup=    0.00000
   1         0.05849143
   2         0.61176863
   3        -2.45341719
   4        -0.21162220
   5         0.00881266
   6         0.00000000
   7         1.05837644
   8        -0.04402904
   9        -0.00000000
  10         0.25484795
  11         0.02907964
  12         0.17455045
  13        -0.01095167
  14        -0.00000000
  15         0.00000000
  16        -0.05849143
  17        -0.61176863
  18         2.45341719
  19        -0.21162220
  20         0.00881266
  21        -0.00000000
  22         1.05837644
  23        -0.04402904
  24         0.00000000
  25        -0.25484795
  26        -0.02907964
  27        -0.17455045
  28         0.01095167
  29        -0.00000000
  30        -0.00000000
  31        -0.32968197
  32         1.54249697
  33        -0.32943573
  34         1.54187000
  35         0.32943573
  36        -1.54187000
  37         0.32968197
  38        -1.54249697
Sym=    19a  
Ene=     4.3896
Spin= Alpha
Occup=    0.00000
   1        -0.00001636
   2        -0.00017050
   3         0.00077857
   4        -0.00492009
   5        -0.11874230
   6        -0.00000000
   7         0.03066565
   8         0.73716883
   9         0.00000000
  10        -0.01019187
  11         0.01013533
  12        -0.00004393
  13        -0.13984782
  14        -0.00000000
  15         0.00000000
  16         0.00001636
  17         0.00017050
  18        -0.00077857
  19        -0.00492009
  20        -0.11874230
  21        -0.00000000
  22         0.03066565
  23         0.73716883
  24         0.00000000
  25         0.01019187
  26        -0.01013533
  27         0.00004393
  28         0.13984782
  29         0.00000000
  30        -0.00000000
  31        -0.47631197
  32         1.22403795
  33         0.47651216
  34        -1.22480649
  35        -0.47651216
  36         1.22480649
  37         0.47631197
  38        -1.22403795
Sym=    20a  
Ene=     4.4883
Spin= Alpha
Occup=    0.00000
   1        -0.02058647
   2        -0.20026989
   3        -0.35645457
   4        -0.45528130
   5         0.01898892
   6        -0.00000000
   7         0.89750413
   8        -0.03737273
   9         0.00000000
  10        -0.14592379
  11        -0.18853297
  12        -0.04275876
  13        -0.00205287
  14        -0.00000000
  15        -0.00000000
  16        -0.02058647
  17        -0.20026989
  18        -0.35645457
  19         0.45528130
  20        -0.01898892
  21        -0.00000000
  22        -0.89750413
  23         0.03737273
  24         0.00000000
  25        -0.14592379
  26        -0.18853297
  27        -0.04275876
  28        -0.00205287
  29         0.00000000
  30        -0.00000000
  31        -0.25615185
  32         0.55159877
  33        -0.25616732
  34         0.55152284
  35        -0.25616732
  36         0.55152284
  37        -0.25615185
  38         0.55159877
Sym=    21a  
Ene=     4.5513
Spin= Alpha
Occup=    0.00000
   1         0.01257318
   2         0.15601635
   3        -0.68461169
   4        -0.36923344
   5         0.01541653
   6         0.00000000
   7         0.78913588
   8        -0.03293283
   9         0.00000000
  10         0.03730509
  11         0.16001339
  12         0.03215604
  13         0.00593978
  14         0.00000000
  15        -0.00000000
  16         0.01257318
  17         0.15601635
  18        -0.68461169
  19         0.36923344
  20        -0.01541653
  21         0.00000000
  22        -0.78913588
  23         0.03293283
  24        -0.00000000
  25         0.03730509
  26         0.16001339
  27         0.03215604
  28         0.00593978
  29        -0.00000000
  30         0.00000000
  31         0.42165365
  32        -0.07336744
  33         0.42160001
  34        -0.07330162
  35         0.42160001
  36        -0.07330162
  37         0.42165365
  38        -0.07336744
Sym=    22a  
Ene=     4.7088
Spin= Alpha
Occup=    0.00000
   1         0.00000000
   2         0.00000000
   3        -0.00000000
   4        -0.00000000
   5         0.00000000
   6         0.65436067
   7        -0.00000000
   8         0.00000000
   9        -1.27761461
  10         0.00000000
  11         0.00000000
  12         0.00000000
  13         0.00000000
  14        -0.10960013
  15         0.00458303
  16        -0.00000000
  17        -0.00000000
  18         0.00000000
  19        -0.00000000
  20        -0.00000000
  21        -0.65436067
  22        -0.00000000
  23         0.00000000
  24         1.27761461
  25        -0.00000000
  26        -0.00000000
  27        -0.00000000
  28         0.00000000
  29        -0.10960013
  30         0.00458303
  31         0.00000000
  32         0.00000000
  33         0.00000000
  34         0.00000000
  35        -0.00000000
  36         0.00000000
  37        -0.00000000
  38         0.00000000
Sym=    23a  
Ene=     4.7399
Spin= Alpha
Occup=    0.00000
   1         0.08888359
   2         0.87472741
   3        -4.06175770
   4        -0.11099766
   5         0.00472752
   6        -0.00000000
   7        -1.06685842
   8         0.04444700
   9         0.00000000
  10         0.25699081
  11         0.25199358
  12         0.07932453
  13        -0.00022119
  14         0.00000000
  15        -0.00000000
  16        -0.08888359
  17        -0.87472741
  18         4.06175770
  19        -0.11099766
  20         0.00472752
  21         0.00000000
  22        -1.06685842
  23         0.04444700
  24        -0.00000000
  25        -0.25699081
  26        -0.25199358
  27        -0.07932453
  28         0.00022119
  29         0.00000000
  30        -0.00000000
  31         0.41844584
  32         0.06206780
  33         0.41846420
  34         0.06229380
  35        -0.41846420
  36        -0.06229380
  37        -0.41844584
  38        -0.06206780
Sym=    24a  
Ene=     4.8634
Spin= Alpha
Occup=    0.00000
   1         0.00001293
   2         0.00012317
   3        -0.00062400
   4        -0.02749221
   5        -0.65700642
   6        -0.00000000
   7         0.05601377
   8         1.34400388
   9         0.00000000
  10        -0.00916855
  11         0.00923528
  12        -0.00000184
  13        -0.12690924
  14        -0.00000000
  15         0.00000000
  16        -0.00001293
  17        -0.00012317
  18         0.00062400
  19        -0.02749221
  20        -0.65700642
  21        -0.00000000
  22         0.05601377
  23         1.34400388
  24         0.00000000
  25         0.00916855
  26        -0.00923528
  27         0.00000184
  28         0.12690924
  29         0.00000000
  30        -0.00000000
  31         0.19323297
  32         0.76029638
  33        -0.19311305
  34        -0.76022720
  35         0.19311305
  36         0.76022720
  37        -0.19323297
  38        -0.76029638
Sym=    25a  
Ene=     4.9041
Spin= Alpha
Occup=    0.00000
   1        -0.00000000
   2        -0.00000000
   3         0.00000000
   4         0.00000000
   5         0.00000000
   6        -0.67538606
   7         0.00000000
   8        -0.00000000
   9         0.63706304
  10         0.00000000
  11        -0.00000000
  12        -0.00000000
  13         0.00000000
  14        -0.16987149
  15         0.00710334
  16         0.00000000
  17         0.00000000
  18        -0.00000000
  19        -0.00000000
  20         0.00000000
  21        -0.67538606
  22         0.00000000
  23        -0.00000000
  24         0.63706304
  25         0.00000000
  26         0.00000000
  27         0.00000000
  28        -0.00000000
  29         0.16987149
  30        -0.00710334
  31        -0.00000000
  32        -0.00000000
  33        -0.00000000
  34         0.00000000
  35         0.00000000
  36        -0.00000000
  37         0.00000000
  38         0.00000000
Sym=    26a  
Ene=     5.2036
Spin= Alpha
Occup=    0.00000
   1        -0.00000114
   2        -0.00000892
   3        -0.00015897
   4         0.01865734
   5         0.44768153
   6         0.00000000
   7        -0.13254959
   8        -3.17533104
   9        -0.00000000
  10        -0.01265088
  11         0.01262714
  12         0.00001779
  13        -0.17425487
  14        -0.00000000
  15        -0.00000000
  16        -0.00000114
  17        -0.00000892
  18        -0.00015897
  19        -0.01865734
  20        -0.44768153
  21        -0.00000000
  22         0.13254959
  23         3.17533104
  24         0.00000000
  25        -0.01265088
  26         0.01262714
  27         0.00001779
  28        -0.17425487
  29         0.00000000
  30         0.00000000
  31        -0.57621202
  32        -0.94712624
  33         0.57624431
  34         0.94727873
  35         0.57624431
  36         0.94727873
  37        -0.57621202
  38        -0.94712624
Sym=    27a  
Ene=     5.6489
Spin= Alpha
Occup=    0.00000
   1         0.00000000
   2         0.00000000
   3        -0.00000000
   4         0.00000000
   5         0.00000000
   6        -0.00000000
   7        -0.00000000
   8        -0.00000000
   9         0.00000000
  10        -0.00000000
  11         0.00000000
  12         0.00000000
  13         0.00000000
  14         0.02840847
  15         0.67936941
  16         0.00000000
  17         0.00000000
  18         0.00000000
  19         0.00000000
  20        -0.00000000
  21        -0.00000000
  22        -0.00000000
  23         0.00000000
  24         0.00000000
  25        -0.00000000
  26        -0.00000000
  27        -0.00000000
  28        -0.00000000
  29         0.02840847
  30         0.67936941
  31        -0.00000000
  32        -0.00000000
  33        -0.00000000
  34         0.00000000
  35         0.00000000
  36         0.00000000
  37        -0.00000000
  38        -0.00000000
Sym=    28a  
Ene=     5.6785
Spin= Alpha
Occup=    0.00000
   1        -0.00000000
   2         0.00000000
   3        -0.00000000
   4        -0.00000000
   5         0.00000000
   6         0.29291023
   7        -0.00000000
   8         0.00000000
   9        -0.16671791
  10         0.00000000
  11        -0.00000000
  12        -0.00000000
  13         0.00000000
  14        -0.59758631
  15         0.02498863
  16        -0.00000000
  17        -0.00000000
  18         0.00000000
  19        -0.00000000
  20         0.00000000
  21         0.29291023
  22        -0.00000000
  23        -0.00000000
  24        -0.16671791
  25        -0.00000000
  26         0.00000000
  27         0.00000000
  28        -0.00000000
  29         0.59758631
  30        -0.02498863
  31         0.00000000
  32         0.00000000
  33        -0.00000000
  34        -0.00000000
  35        -0.00000000
  36        -0.00000000
  37        -0.00000000
  38         0.00000000
Sym=    29a  
Ene=     5.9779
Spin= Alpha
Occup=    0.00000
   1         0.00000000
   2        -0.00000000
   3         0.00000000
   4        -0.00000000
   5        -0.00000000
   6        -0.00000000
   7         0.00000000
   8         0.00000000