[Molden Format]
[N_Atoms]
                     6
[Atoms] (AU)
C1          1      6          -3.74112861      1.41379860      0.00000000
C2          2      6          -1.23932586      1.30918336      0.00000000
H3          3      1          -4.89035232     -0.28126684      0.00000000
H4          4      1          -4.74497569      3.19879799      0.00000000
H5          5      1          -0.23547877     -0.47581603      0.00000000
H6          6      1          -0.09010214      3.00424880      0.00000000
[Charge] (Mulliken)
 -0.385331389026137     
 -0.385331389046131     
  0.192660077461138     
  0.192671311576474     
  0.192671311576295     
  0.192660077458228     
[GTO] (AU)
   1
   s   6
  3.047524880E+03  1.834737132E-03
  4.573695180E+02  1.403732281E-02
  1.039486850E+02  6.884262227E-02
  2.921015530E+01  2.321844432E-01
  9.286662960E+00  4.679413484E-01
  3.163926960E+00  3.623119853E-01
   s   3
  7.868272350E+00 -1.193324198E-01
  1.881288540E+00 -1.608541517E-01
  5.442492580E-01  1.143456438E+00
   s   1
  1.687144782E-01  1.000000000E+00
   p   3
  7.868272350E+00  6.899906659E-02
  1.881288540E+00  3.164239610E-01
  5.442492580E-01  7.443082909E-01
   p   1
  1.687144782E-01  1.000000000E+00
   d   1
  8.000000000E-01  1.000000000E+00
 
   2
   s   6
  3.047524880E+03  1.834737132E-03
  4.573695180E+02  1.403732281E-02
  1.039486850E+02  6.884262227E-02
  2.921015530E+01  2.321844432E-01
  9.286662960E+00  4.679413484E-01
  3.163926960E+00  3.623119853E-01
   s   3
  7.868272350E+00 -1.193324198E-01
  1.881288540E+00 -1.608541517E-01
  5.442492580E-01  1.143456438E+00
   s   1
  1.687144782E-01  1.000000000E+00
   p   3
  7.868272350E+00  6.899906659E-02
  1.881288540E+00  3.164239610E-01
  5.442492580E-01  7.443082909E-01
   p   1
  1.687144782E-01  1.000000000E+00
   d   1
  8.000000000E-01  1.000000000E+00
 
   3
   s   3
  1.873113696E+01  3.349460434E-02
  2.825394365E+00  2.347269535E-01
  6.401216923E-01  8.137573261E-01
   s   1
  1.612777588E-01  1.000000000E+00
 
   4
   s   3
  1.873113696E+01  3.349460434E-02
  2.825394365E+00  2.347269535E-01
  6.401216923E-01  8.137573261E-01
   s   1
  1.612777588E-01  1.000000000E+00
 
   5
   s   3
  1.873113696E+01  3.349460434E-02
  2.825394365E+00  2.347269535E-01
  6.401216923E-01  8.137573261E-01
   s   1
  1.612777588E-01  1.000000000E+00
 
   6
   s   3
  1.873113696E+01  3.349460434E-02
  2.825394365E+00  2.347269535E-01
  6.401216923E-01  8.137573261E-01
   s   1
  1.612777588E-01  1.000000000E+00
 
[MO]
Sym=     1a  
Ene=   -11.2400
Spin= Alpha
Occup=    1.00000
   1         0.70376219
   2         0.01923410
   3        -0.00528039
   4         0.00002072
   5        -0.00000087
   6         0.00000000
   7         0.00059955
   8        -0.00002498
   9        -0.00000000
  10        -0.00133995
  11        -0.00161684
  12        -0.00191983
  13        -0.00001342
  14         0.00000000
  15         0.00000000
  16         0.70376220
  17         0.01923410
  18        -0.00528039
  19        -0.00002072
  20         0.00000087
  21         0.00000000
  22        -0.00059955
  23         0.00002498
  24        -0.00000000
  25        -0.00133995
  26        -0.00161684
  27        -0.00191983
  28        -0.00001342
  29         0.00000000
  30        -0.00000000
  31        -0.00012964
  32         0.00144473
  33        -0.00012968
  34         0.00144466
  35        -0.00012968
  36         0.00144466
  37        -0.00012964
  38         0.00144473
Sym=     1a  
Ene=   -11.2400
Spin= Beta
Occup=    1.00000
   1         0.70376219
   2         0.01923410
   3        -0.00528039
   4         0.00002072
   5        -0.00000087
   6         0.00000000
   7         0.00059955
   8        -0.00002498
   9        -0.00000000
  10        -0.00133995
  11        -0.00161684
  12        -0.00191983
  13        -0.00001342
  14         0.00000000
  15         0.00000000
  16         0.70376220
  17         0.01923410
  18        -0.00528039
  19        -0.00002072
  20         0.00000087
  21         0.00000000
  22        -0.00059955
  23         0.00002498
  24        -0.00000000
  25        -0.00133995
  26        -0.00161684
  27        -0.00191983
  28        -0.00001342
  29         0.00000000
  30        -0.00000000
  31        -0.00012964
  32         0.00144473
  33        -0.00012968
  34         0.00144466
  35        -0.00012968
  36         0.00144466
  37        -0.00012964
  38         0.00144473
Sym=     2a  
Ene=   -11.2390
Spin= Alpha
Occup=    1.00000
   1        -0.70423610
   2        -0.01966168
   3         0.01088172
   4        -0.00048483
   5         0.00002028
   6         0.00000000
   7         0.00168972
   8        -0.00007073
   9        -0.00000000
  10         0.00081969
  11         0.00127178
  12         0.00175072
  13         0.00002188
  14        -0.00000000
  15         0.00000000
  16         0.70423609
  17         0.01966168
  18        -0.01088172
  19        -0.00048483
  20         0.00002028
  21         0.00000000
  22         0.00168972
  23        -0.00007073
  24        -0.00000000
  25        -0.00081969
  26        -0.00127178
  27        -0.00175072
  28        -0.00002188
  29         0.00000000
  30        -0.00000000
  31         0.00005054
  32        -0.00147395
  33         0.00005057
  34        -0.00147391
  35        -0.00005057
  36         0.00147391
  37        -0.00005054
  38         0.00147395
Sym=     2a  
Ene=   -11.2390
Spin= Beta
Occup=    1.00000
   1        -0.70423610
   2        -0.01966168
   3         0.01088172
   4        -0.00048483
   5         0.00002028
   6         0.00000000
   7         0.00168972
   8        -0.00007073
   9        -0.00000000
  10         0.00081969
  11         0.00127178
  12         0.00175072
  13         0.00002188
  14        -0.00000000
  15         0.00000000
  16         0.70423609
  17         0.01966168
  18        -0.01088172
  19        -0.00048483
  20         0.00002028
  21         0.00000000
  22         0.00168972
  23        -0.00007073
  24        -0.00000000
  25        -0.00081969
  26        -0.00127178
  27        -0.00175072
  28        -0.00002188
  29         0.00000000
  30        -0.00000000
  31         0.00005054
  32        -0.00147395
  33         0.00005057
  34        -0.00147391
  35        -0.00005057
  36         0.00147391
  37        -0.00005054
  38         0.00147395
Sym=     3a  
Ene=    -1.0393
Spin= Alpha
Occup=    1.00000
   1        -0.15743676
   2         0.30267883
   3         0.22298026
   4         0.11699279
   5        -0.00489366
   6         0.00000000
   7         0.00820300
   8        -0.00034160
   9        -0.00000000
  10         0.01863287
  11         0.00507433
  12        -0.01444934
  13        -0.00065639
  14         0.00000000
  15        -0.00000000
  16        -0.15743676
  17         0.30267883
  18         0.22298026
  19        -0.11699279
  20         0.00489366
  21         0.00000000
  22        -0.00820300
  23         0.00034160
  24         0.00000000
  25         0.01863287
  26         0.00507433
  27        -0.01444934
  28        -0.00065639
  29        -0.00000000
  30         0.00000000
  31         0.08025046
  32         0.01586892
  33         0.08024840
  34         0.01586666
  35         0.08024840
  36         0.01586666
  37         0.08025046
  38         0.01586892
Sym=     3a  
Ene=    -1.0393
Spin= Beta
Occup=    1.00000
   1        -0.15743676
   2         0.30267883
   3         0.22298026
   4         0.11699279
   5        -0.00489366
   6         0.00000000
   7         0.00820300
   8        -0.00034160
   9        -0.00000000
  10         0.01863287
  11         0.00507433
  12        -0.01444934
  13        -0.00065639
  14         0.00000000
  15        -0.00000000
  16        -0.15743676
  17         0.30267883
  18         0.22298026
  19        -0.11699279
  20         0.00489366
  21         0.00000000
  22        -0.00820300
  23         0.00034160
  24         0.00000000
  25         0.01863287
  26         0.00507433
  27        -0.01444934
  28        -0.00065639
  29        -0.00000000
  30         0.00000000
  31         0.08025046
  32         0.01586892
  33         0.08024840
  34         0.01586666
  35         0.08024840
  36         0.01586666
  37         0.08025046
  38         0.01586892
Sym=     4a  
Ene=    -0.7930
Spin= Alpha
Occup=    1.00000
   1         0.12069916
   2        -0.23217363
   3        -0.26138791
   4         0.16541263
   5        -0.00691584
   6         0.00000000
   7         0.05458522
   8        -0.00228189
   9        -0.00000000
  10         0.00085735
  11        -0.02394346
  12         0.01004127
  13        -0.00119819
  14         0.00000000
  15        -0.00000000
  16        -0.12069916
  17         0.23217363
  18         0.26138791
  19         0.16541263
  20        -0.00691584
  21         0.00000000
  22         0.05458522
  23        -0.00228189
  24        -0.00000000
  25        -0.00085735
  26         0.02394346
  27        -0.01004127
  28         0.00119819
  29         0.00000000
  30        -0.00000000
  31        -0.14477638
  32        -0.06555978
  33        -0.14478208
  34        -0.06556235
  35         0.14478208
  36         0.06556235
  37         0.14477638
  38         0.06555978
Sym=     4a  
Ene=    -0.7930
Spin= Beta
Occup=    1.00000
   1         0.12069916
   2        -0.23217363
   3        -0.26138791
   4         0.16541263
   5        -0.00691584
   6         0.00000000
   7         0.05458522
   8        -0.00228189
   9        -0.00000000
  10         0.00085735
  11        -0.02394346
  12         0.01004127
  13        -0.00119819
  14         0.00000000
  15        -0.00000000
  16        -0.12069916
  17         0.23217363
  18         0.26138791
  19         0.16541263
  20        -0.00691584
  21         0.00000000
  22         0.05458522
  23        -0.00228189
  24        -0.00000000
  25        -0.00085735
  26         0.02394346
  27        -0.01004127
  28         0.00119819
  29         0.00000000
  30        -0.00000000
  31        -0.14477638
  32        -0.06555978
  33        -0.14478208
  34        -0.06556235
  35         0.14478208
  36         0.06556235
  37         0.14477638
  38         0.06555978
Sym=     5a  
Ene=    -0.6459
Spin= Alpha
Occup=    1.00000
   1         0.00000010
   2        -0.00000016
   3        -0.00000161
   4         0.01358125
   5         0.32489259
   6        -0.00000000
   7         0.00560604
   8         0.13409866
   9         0.00000000
  10        -0.00080324
  11         0.00080298
  12         0.00000004
  13        -0.01109689
  14        -0.00000000
  15         0.00000000
  16        -0.00000010
  17         0.00000016
  18         0.00000161
  19         0.01358125
  20         0.32489259
  21         0.00000000
  22         0.00560604
  23         0.13409866
  24        -0.00000000
  25         0.00080324
  26        -0.00080298
  27        -0.00000004
  28         0.01109689
  29        -0.00000000
  30         0.00000000
  31        -0.15524332
  32        -0.10137031
  33         0.15523803
  34         0.10136701
  35        -0.15523803
  36        -0.10136701
  37         0.15524332
  38         0.10137031
Sym=     5a  
Ene=    -0.6459
Spin= Beta
Occup=    1.00000
   1         0.00000010
   2        -0.00000016
   3        -0.00000161
   4         0.01358125
   5         0.32489259
   6        -0.00000000
   7         0.00560604
   8         0.13409866
   9         0.00000000
  10        -0.00080324
  11         0.00080298
  12         0.00000004
  13        -0.01109689
  14        -0.00000000
  15         0.00000000
  16        -0.00000010
  17         0.00000016
  18         0.00000161
  19         0.01358125
  20         0.32489259
  21         0.00000000
  22         0.00560604
  23         0.13409866
  24        -0.00000000
  25         0.00080324
  26        -0.00080298
  27        -0.00000004
  28         0.01109689
  29        -0.00000000
  30         0.00000000
  31        -0.15524332
  32        -0.10137031
  33         0.15523803
  34         0.10136701
  35        -0.15523803
  36        -0.10136701
  37         0.15524332
  38         0.10137031
Sym=     6a  
Ene=    -0.5937
Spin= Alpha
Occup=    1.00000
   1         0.00841623
   2        -0.02451479
   3         0.02516726
   4        -0.40818673
   5         0.01709104
   6        -0.00000000
   7        -0.14895602
   8         0.00624403
   9        -0.00000000
  10        -0.01427812
  11         0.02729247
  12        -0.00019017
  13         0.00200683
  14        -0.00000000
  15         0.00000000
  16         0.00841623
  17        -0.02451479
  18         0.02516726
  19         0.40818673
  20        -0.01709104
  21        -0.00000000
  22         0.14895602
  23        -0.00624403
  24         0.00000000
  25        -0.01427812
  26         0.02729247
  27        -0.00019017
  28         0.00200683
  29        -0.00000000
  30        -0.00000000
  31         0.12592137
  32         0.09976326
  33         0.12595930
  34         0.09978501
  35         0.12595930
  36         0.09978501
  37         0.12592137
  38         0.09976326
Sym=     6a  
Ene=    -0.5937
Spin= Beta
Occup=    1.00000
   1         0.00841623
   2        -0.02451479
   3         0.02516726
   4        -0.40818673
   5         0.01709104
   6        -0.00000000
   7        -0.14895602
   8         0.00624403
   9        -0.00000000
  10        -0.01427812
  11         0.02729247
  12        -0.00019017
  13         0.00200683
  14        -0.00000000
  15         0.00000000
  16         0.00841623
  17        -0.02451479
  18         0.02516726
  19         0.40818673
  20        -0.01709104
  21        -0.00000000
  22         0.14895602
  23        -0.00624403
  24         0.00000000
  25        -0.01427812
  26         0.02729247
  27        -0.00019017
  28         0.00200683
  29        -0.00000000
  30        -0.00000000
  31         0.12592137
  32         0.09976326
  33         0.12595930
  34         0.09978501
  35         0.12595930
  36         0.09978501
  37         0.12592137
  38         0.09976326
Sym=     7a  
Ene=    -0.5059
Spin= Alpha
Occup=    1.00000
   1         0.00000285
   2        -0.00000774
   3        -0.00000524
   4        -0.01288424
   5        -0.30727958
   6        -0.00000000
   7        -0.00863549
   8        -0.20620712
   9         0.00000000
  10         0.00257021
  11        -0.00256856
  12        -0.00000024
  13         0.03546950
  14        -0.00000000
  15        -0.00000000
  16         0.00000285
  17        -0.00000774
  18        -0.00000524
  19         0.01288424
  20         0.30727958
  21         0.00000000
  22         0.00863549
  23         0.20620712
  24        -0.00000000
  25         0.00257021
  26        -0.00256856
  27        -0.00000024
  28         0.03546950
  29        -0.00000000
  30         0.00000000
  31         0.18761202
  32         0.14836020
  33        -0.18758624
  34        -0.14833307
  35        -0.18758624
  36        -0.14833307
  37         0.18761202
  38         0.14836020
Sym=     7a  
Ene=    -0.5059
Spin= Beta
Occup=    1.00000
   1         0.00000285
   2        -0.00000774
   3        -0.00000524
   4        -0.01288424
   5        -0.30727958
   6        -0.00000000
   7        -0.00863549
   8        -0.20620712
   9         0.00000000
  10         0.00257021
  11        -0.00256856
  12        -0.00000024
  13         0.03546950
  14        -0.00000000
  15        -0.00000000
  16         0.00000285
  17        -0.00000774
  18        -0.00000524
  19         0.01288424
  20         0.30727958
  21         0.00000000
  22         0.00863549
  23         0.20620712
  24        -0.00000000
  25         0.00257021
  26        -0.00256856
  27        -0.00000024
  28         0.03546950
  29        -0.00000000
  30         0.00000000
  31         0.18761202
  32         0.14836020
  33        -0.18758624
  34        -0.14833307
  35        -0.18758624
  36        -0.14833307
  37         0.18761202
  38         0.14836020
Sym=     8a  
Ene=    -0.2961
Spin= Alpha
Occup=    0.96578
   1         0.00000000
   2        -0.00000000
   3         0.00000000
   4        -0.00000000
   5         0.00000000
   6         0.36864412
   7         0.00000000
   8         0.00000000
   9         0.30884949
  10         0.00000000
  11         0.00000000
  12         0.00000000
  13         0.00000000
  14         0.03262918
  15        -0.00136448
  16         0.00000000
  17        -0.00000000
  18        -0.00000000
  19         0.00000000
  20        -0.00000000
  21         0.36864412
  22         0.00000000
  23         0.00000000
  24         0.30884949
  25         0.00000000
  26         0.00000000
  27         0.00000000
  28         0.00000000
  29        -0.03262918
  30         0.00136448
  31         0.00000000
  32         0.00000000
  33        -0.00000000
  34        -0.00000000
  35         0.00000000
  36        -0.00000000
  37         0.00000000
  38        -0.00000000
Sym=     8a  
Ene=    -0.2961
Spin= Beta
Occup=    0.96578
   1         0.00000000
   2        -0.00000000
   3         0.00000000
   4        -0.00000000
   5         0.00000000
   6         0.36864412
   7         0.00000000
   8         0.00000000
   9         0.30884949
  10         0.00000000
  11         0.00000000
  12         0.00000000
  13         0.00000000
  14         0.03262918
  15        -0.00136448
  16         0.00000000
  17        -0.00000000
  18        -0.00000000
  19         0.00000000
  20        -0.00000000
  21         0.36864412
  22         0.00000000
  23         0.00000000
  24         0.30884949
  25         0.00000000
  26         0.00000000
  27         0.00000000
  28         0.00000000
  29        -0.03262918
  30         0.00136448
  31         0.00000000
  32         0.00000000
  33        -0.00000000
  34        -0.00000000
  35         0.00000000
  36        -0.00000000
  37         0.00000000
  38        -0.00000000
Sym=     9a  
Ene=     0.1052
Spin= Alpha
Occup=    0.03422
   1         0.00000000
   2         0.00000000
   3         0.00000000
   4         0.00000000
   5         0.00000000
   6        -0.35187518
   7         0.00000000
   8        -0.00000000
   9        -0.72906228
  10         0.00000000
  11        -0.00000000
  12        -0.00000000
  13        -0.00000000
  14         0.02187803
  15        -0.00091488
  16         0.00000000
  17         0.00000000
  18        -0.00000000
  19         0.00000000
  20        -0.00000000
  21         0.35187518
  22         0.00000000
  23         0.00000000
  24         0.72906228
  25        -0.00000000
  26        -0.00000000
  27         0.00000000
  28         0.00000000
  29         0.02187803
  30        -0.00091488
  31        -0.00000000
  32         0.00000000
  33        -0.00000000
  34         0.00000000
  35         0.00000000
  36        -0.00000000
  37        -0.00000000
  38        -0.00000000
Sym=     9a  
Ene=     0.1052
Spin= Beta
Occup=    0.03422
   1         0.00000000
   2         0.00000000
   3         0.00000000
   4         0.00000000
   5         0.00000000
   6        -0.35187518
   7         0.00000000
   8        -0.00000000
   9        -0.72906228
  10         0.00000000
  11        -0.00000000
  12        -0.00000000
  13        -0.00000000
  14         0.02187803
  15        -0.00091488
  16         0.00000000
  17         0.00000000
  18        -0.00000000
  19         0.00000000
  20        -0.00000000
  21         0.35187518
  22         0.00000000
  23         0.00000000
  24         0.72906228
  25        -0.00000000
  26        -0.00000000
  27         0.00000000
  28         0.00000000
  29         0.02187803
  30        -0.00091488
  31        -0.00000000
  32         0.00000000
  33        -0.00000000
  34         0.00000000
  35         0.00000000
  36        -0.00000000
  37        -0.00000000
  38        -0.00000000
Sym=    10a  
Ene=     0.2636
Spin= Alpha
Occup=    0.00000
   1         0.07787994
   2        -0.08484911
   3        -1.47646089
   4         0.14434102
   5        -0.00602791
   6         0.00000000
   7         0.64625923
   8        -0.02697071
   9        -0.00000000
  10        -0.00333879
  11         0.01073469
  12         0.00380774
  13         0.00068083
  14         0.00000000
  15         0.00000000
  16         0.07787994
  17        -0.08484911
  18        -1.47646089
  19        -0.14434102
  20         0.00602791
  21        -0.00000000
  22        -0.64625923
  23         0.02697071
  24         0.00000000
  25        -0.00333879
  26         0.01073469
  27         0.00380774
  28         0.00068083
  29         0.00000000
  30        -0.00000000
  31         0.01369226
  32         1.02980641
  33         0.01368829
  34         1.02977515
  35         0.01368829
  36         1.02977515
  37         0.01369226
  38         1.02980641
Sym=    10a  
Ene=     0.2636
Spin= Beta
Occup=    0.00000
   1         0.07787994
   2        -0.08484911
   3        -1.47646089
   4         0.14434102
   5        -0.00602791
   6         0.00000000
   7         0.64625923
   8        -0.02697071
   9        -0.00000000
  10        -0.00333879
  11         0.01073469
  12         0.00380774
  13         0.00068083
  14         0.00000000
  15         0.00000000
  16         0.07787994
  17        -0.08484911
  18        -1.47646089
  19        -0.14434102
  20         0.00602791
  21        -0.00000000
  22        -0.64625923
  23         0.02697071
  24         0.00000000
  25        -0.00333879
  26         0.01073469
  27         0.00380774
  28         0.00068083
  29         0.00000000
  30        -0.00000000
  31         0.01369226
  32         1.02980641
  33         0.01368829
  34         1.02977515
  35         0.01368829
  36         1.02977515
  37         0.01369226
  38         1.02980641
Sym=    11a  
Ene=     0.2864
Spin= Alpha
Occup=    0.00000
   1        -0.00001711
   2         0.00002267
   3         0.00022002
   4         0.01059402
   5         0.25359368
   6         0.00000000
   7         0.03293260
   8         0.78929041
   9        -0.00000000
  10         0.00185887
  11        -0.00186081
  12        -0.00000045
  13         0.02565939
  14        -0.00000000
  15        -0.00000000
  16         0.00001711
  17        -0.00002267
  18        -0.00022002
  19         0.01059402
  20         0.25359368
  21        -0.00000000
  22         0.03293260
  23         0.78929041
  24         0.00000000
  25        -0.00185887
  26         0.00186081
  27         0.00000045
  28        -0.02565939
  29        -0.00000000
  30         0.00000000
  31         0.04600825
  32         1.08020527
  33        -0.04601573
  34        -1.08048140
  35         0.04601573
  36         1.08048140
  37        -0.04600825
  38        -1.08020527
Sym=    11a  
Ene=     0.2864
Spin= Beta
Occup=    0.00000
   1        -0.00001711
   2         0.00002267
   3         0.00022002
   4         0.01059402
   5         0.25359368
   6         0.00000000
   7         0.03293260
   8         0.78929041
   9        -0.00000000
  10         0.00185887
  11        -0.00186081
  12        -0.00000045
  13         0.02565939
  14        -0.00000000
  15        -0.00000000
  16         0.00001711
  17        -0.00002267
  18        -0.00022002
  19         0.01059402
  20         0.25359368
  21        -0.00000000
  22         0.03293260
  23         0.78929041
  24         0.00000000
  25        -0.00185887
  26         0.00186081
  27         0.00000045
  28        -0.02565939
  29        -0.00000000
  30         0.00000000
  31         0.04600825
  32         1.08020527
  33        -0.04601573
  34        -1.08048140
  35         0.04601573
  36         1.08048140
  37        -0.04600825
  38        -1.08020527
Sym=    12a  
Ene=     0.3065
Spin= Alpha
Occup=    0.00000
   1         0.10872048
   2        -0.10519441
   3        -1.93311173
   4         0.09449259
   5        -0.00390971
   6         0.00000000
   7         0.14813608
   8        -0.00605896
   9        -0.00000000
  10         0.00604824
  11        -0.00083733
  12         0.00953430
  13        -0.00032977
  14        -0.00000000
  15         0.00000000
  16        -0.10872048
  17         0.10519441
  18         1.93311173
  19         0.09449259
  20        -0.00390971
  21         0.00000000
  22         0.14813608
  23        -0.00605896
  24         0.00000000
  25        -0.00604824
  26         0.00083733
  27        -0.00953430
  28         0.00032977
  29         0.00000000
  30        -0.00000000
  31         0.01965143
  32         1.06755249
  33         0.01964392
  34         1.06724136
  35        -0.01964392
  36        -1.06724136
  37        -0.01965143
  38        -1.06755249
Sym=    12a  
Ene=     0.3065
Spin= Beta
Occup=    0.00000
   1         0.10872048
   2        -0.10519441
   3        -1.93311173
   4         0.09449259
   5        -0.00390971
   6         0.00000000
   7         0.14813608
   8        -0.00605896
   9        -0.00000000
  10         0.00604824
  11        -0.00083733
  12         0.00953430
  13        -0.00032977
  14        -0.00000000
  15         0.00000000
  16        -0.10872048
  17         0.10519441
  18         1.93311173
  19         0.09449259
  20        -0.00390971
  21         0.00000000
  22         0.14813608
  23        -0.00605896
  24         0.00000000
  25        -0.00604824
  26         0.00083733
  27        -0.00953430
  28         0.00032977
  29         0.00000000
  30        -0.00000000
  31         0.01965143
  32         1.06755249
  33         0.01964392
  34         1.06724136
  35        -0.01964392
  36        -1.06724136
  37        -0.01965143
  38        -1.06755249
Sym=    13a  
Ene=     0.3892
Spin= Alpha
Occup=    0.00000
   1         0.00000141
   2         0.00000295
   3        -0.00007919
   4        -0.01048811
   5        -0.25136277
   6        -0.00000000
   7        -0.07816361
   8        -1.87069844
   9         0.00000000
  10         0.00115792
  11        -0.00115692
  12        -0.00000019
  13         0.01593262
  14         0.00000000
  15        -0.00000000
  16         0.00000141
  17         0.00000295
  18        -0.00007919
  19         0.01048811
  20         0.25136277
  21        -0.00000000
  22         0.07816361
  23         1.87069844
  24         0.00000000
  25         0.00115792
  26        -0.00115692
  27        -0.00000019
  28         0.01593262
  29        -0.00000000
  30        -0.00000000
  31         0.03783540
  32        -1.61313376
  33        -0.03784087
  34         1.61323187
  35        -0.03784087
  36         1.61323187
  37         0.03783540
  38        -1.61313376
Sym=    13a  
Ene=     0.3892
Spin= Beta
Occup=    0.00000
   1         0.00000141
   2         0.00000295
   3        -0.00007919
   4        -0.01048811
   5        -0.25136277
   6        -0.00000000
   7        -0.07816361
   8        -1.87069844
   9         0.00000000
  10         0.00115792
  11        -0.00115692
  12        -0.00000019
  13         0.01593262
  14         0.00000000
  15        -0.00000000
  16         0.00000141
  17         0.00000295
  18        -0.00007919
  19         0.01048811
  20         0.25136277
  21        -0.00000000
  22         0.07816361
  23         1.87069844
  24         0.00000000
  25         0.00115792
  26        -0.00115692
  27        -0.00000019
  28         0.01593262
  29        -0.00000000
  30        -0.00000000
  31         0.03783540
  32        -1.61313376
  33        -0.03784087
  34         1.61323187
  35        -0.03784087
  36         1.61323187
  37         0.03783540
  38        -1.61313376
Sym=    14a  
Ene=     0.4937
Spin= Alpha
Occup=    0.00000
   1        -0.06673840
   2         0.00273943
   3         3.12693651
   4         0.14250339
   5        -0.00596115
   6         0.00000000
   7         2.99342070
   8        -0.12518119
   9        -0.00000000
  10         0.00073097
  11         0.02367085
  12        -0.01057194
  13         0.00110999
  14        -0.00000000
  15         0.00000000
  16         0.06673840
  17        -0.00273943
  18        -3.12693651
  19         0.14250339
  20        -0.00596115
  21         0.00000000
  22         2.99342070
  23        -0.12518119
  24        -0.00000000
  25        -0.00073097
  26        -0.02367085
  27         0.01057194
  28        -0.00110999
  29        -0.00000000
  30        -0.00000000
  31         0.07550472
  32         0.58326433
  33         0.07548183
  34         0.58338530
  35        -0.07548183
  36        -0.58338530
  37        -0.07550472
  38        -0.58326433
Sym=    14a  
Ene=     0.4937
Spin= Beta
Occup=    0.00000
   1        -0.06673840
   2         0.00273943
   3         3.12693651
   4         0.14250339
   5        -0.00596115
   6         0.00000000
   7         2.99342070
   8        -0.12518119
   9        -0.00000000
  10         0.00073097
  11         0.02367085
  12        -0.01057194
  13         0.00110999
  14        -0.00000000
  15         0.00000000
  16         0.06673840
  17        -0.00273943
  18        -3.12693651
  19         0.14250339
  20        -0.00596115
  21         0.00000000
  22         2.99342070
  23        -0.12518119
  24        -0.00000000
  25        -0.00073097
  26        -0.02367085
  27         0.01057194
  28        -0.00110999
  29        -0.00000000
  30        -0.00000000
  31         0.07550472
  32         0.58326433
  33         0.07548183
  34         0.58338530
  35        -0.07548183
  36        -0.58338530
  37        -0.07550472
  38        -0.58326433
Sym=    15a  
Ene=     0.6579
Spin= Alpha
Occup=    0.00000
   1        -0.02402395
   2        -0.23671508
   3        -0.14011815
   4        -0.54516969
   5         0.02275178
   6         0.00000000
   7         1.01940007
   8        -0.04260037