[Molden Format]
[N_Atoms]
                     6
[Atoms] (AU)
C1          1      6          -0.03002775      0.13895723     -0.11255209
C2          2      6           0.02348363     -0.00466573      2.48630133
H3          3      1           1.62115069      0.27781809     -1.34270521
H4          4      1          -1.76967371     -0.02210224     -1.18440664
H5          5      1           1.44480523      1.25361030      3.33078025
H6          6      1           1.39985998     -1.64361575      2.51065801
[Charge] (Mulliken)
  0.000000000000000E+000
  0.000000000000000E+000
  0.000000000000000E+000
  0.000000000000000E+000
  0.000000000000000E+000
  0.000000000000000E+000
[GTO] (AU)
   1
   s   6
  3.047524880E+03  1.834737132E-03
  4.573695180E+02  1.403732281E-02
  1.039486850E+02  6.884262227E-02
  2.921015530E+01  2.321844432E-01
  9.286662960E+00  4.679413484E-01
  3.163926960E+00  3.623119853E-01
   s   3
  7.868272350E+00 -1.193324198E-01
  1.881288540E+00 -1.608541517E-01
  5.442492580E-01  1.143456438E+00
   s   1
  1.687144782E-01  1.000000000E+00
   p   3
  7.868272350E+00  6.899906659E-02
  1.881288540E+00  3.164239610E-01
  5.442492580E-01  7.443082909E-01
   p   1
  1.687144782E-01  1.000000000E+00
   d   1
  8.000000000E-01  1.000000000E+00
 
   2
   s   6
  3.047524880E+03  1.834737132E-03
  4.573695180E+02  1.403732281E-02
  1.039486850E+02  6.884262227E-02
  2.921015530E+01  2.321844432E-01
  9.286662960E+00  4.679413484E-01
  3.163926960E+00  3.623119853E-01
   s   3
  7.868272350E+00 -1.193324198E-01
  1.881288540E+00 -1.608541517E-01
  5.442492580E-01  1.143456438E+00
   s   1
  1.687144782E-01  1.000000000E+00
   p   3
  7.868272350E+00  6.899906659E-02
  1.881288540E+00  3.164239610E-01
  5.442492580E-01  7.443082909E-01
   p   1
  1.687144782E-01  1.000000000E+00
   d   1
  8.000000000E-01  1.000000000E+00
 
   3
   s   3
  1.873113696E+01  3.349460434E-02
  2.825394365E+00  2.347269535E-01
  6.401216923E-01  8.137573261E-01
   s   1
  1.612777588E-01  1.000000000E+00
 
   4
   s   3
  1.873113696E+01  3.349460434E-02
  2.825394365E+00  2.347269535E-01
  6.401216923E-01  8.137573261E-01
   s   1
  1.612777588E-01  1.000000000E+00
 
   5
   s   3
  1.873113696E+01  3.349460434E-02
  2.825394365E+00  2.347269535E-01
  6.401216923E-01  8.137573261E-01
   s   1
  1.612777588E-01  1.000000000E+00
 
   6
   s   3
  1.873113696E+01  3.349460434E-02
  2.825394365E+00  2.347269535E-01
  6.401216923E-01  8.137573261E-01
   s   1
  1.612777588E-01  1.000000000E+00
 
[MO]
Sym=     1a  
Ene=   -11.3470
Spin= Alpha
Occup=    2.00000
   1         0.71875391
   2         0.01447157
   3         0.00072691
   4         0.00004901
   5        -0.00010149
   6         0.00168783
   7         0.00003061
   8        -0.00006338
   9         0.00105405
  10         0.00000000
  11         0.00000000
  12         0.00000000
  13        -0.00000000
  14        -0.00000000
  15         0.00000000
  16         0.68610502
  17         0.01391066
  18         0.00080128
  19         0.00001546
  20         0.00009196
  21        -0.00178821
  22         0.00000966
  23         0.00005743
  24        -0.00111674
  25         0.00000000
  26         0.00000000
  27        -0.00000000
  28        -0.00000000
  29         0.00000000
  30         0.00000000
  31         0.00151677
  32         0.00169355
  33         0.00154308
  34         0.00172293
  35         0.00150259
  36         0.00167772
  37         0.00156314
  38         0.00174533
Sym=     2a  
Ene=   -11.3310
Spin= Alpha
Occup=    2.00000
   1        -0.68785765
   2        -0.01152083
   3         0.00189697
   4         0.00004769
   5        -0.00009638
   6         0.00174516
   7         0.00002978
   8        -0.00006019
   9         0.00108985
  10        -0.00000000
  11        -0.00000000
  12        -0.00000000
  13        -0.00000000
  14        -0.00000000
  15         0.00000000
  16         0.72053079
  17         0.01217123
  18        -0.00187222
  19         0.00007052
  20        -0.00009008
  21         0.00164155
  22         0.00004404
  23        -0.00005625
  24         0.00102515
  25         0.00000000
  26         0.00000000
  27         0.00000000
  28         0.00000000
  29        -0.00000000
  30        -0.00000000
  31        -0.00113970
  32        -0.00127253
  33        -0.00114909
  34        -0.00128301
  35         0.00114292
  36         0.00127612
  37         0.00094297
  38         0.00105288
Sym=     3a  
Ene=    -1.4839
Spin= Alpha
Occup=    2.00000
   1        -0.15006255
   2         0.19165927
   3         0.21659771
   4         0.01687677
   5        -0.00863367
   6         0.04888474
   7         0.01053953
   8        -0.00539172
   9         0.03052850
  10         0.00000000
  11         0.00000000
  12         0.00000000
  13         0.00000000
  14        -0.00000000
  15         0.00000000
  16        -0.14914243
  17         0.18993164
  18         0.21465454
  19         0.03501569
  20        -0.00325249
  21        -0.05683664
  22         0.02186728
  23        -0.00203118
  24        -0.03549445
  25        -0.00000000
  26        -0.00000000
  27         0.00000000
  28        -0.00000000
  29        -0.00000000
  30         0.00000000
  31         0.08385151
  32         0.09362455
  33         0.07477923
  34         0.08349488
  35         0.08992825
  36         0.10040955
  37         0.10104345
  38         0.11282025
Sym=     4a  
Ene=    -1.0218
Spin= Alpha
Occup=    2.00000
   1         0.11658601
   2        -0.17219837
   3        -0.19421417
   4         0.06388373
   5        -0.00569066
   6         0.15422063
   7         0.03989535
   8        -0.00355381
   9         0.09631070
  10        -0.00000000
  11        -0.00000000
  12         0.00000000
  13         0.00000000
  14         0.00000000
  15        -0.00000000
  16        -0.09952892
  17         0.14160937
  18         0.15979251
  19         0.09335062
  20        -0.00311997
  21         0.11343102
  22         0.05829741
  23        -0.00194842
  24         0.07083761
  25        -0.00000000
  26         0.00000000
  27         0.00000000
  28        -0.00000000
  29         0.00000000
  30        -0.00000000
  31        -0.10901452
  32        -0.12172036
  33        -0.15403003
  34        -0.17198250
  35         0.12646756
  36         0.14120757
  37         0.10192824
  38         0.11380815
Sym=     5a  
Ene=    -0.7541
Spin= Alpha
Occup=    2.00000
   1        -0.00243872
   2         0.00516768
   3         0.00580568
   4         0.32367129
   5         0.02911104
   6        -0.15016442
   7         0.20213255
   8         0.01817983
   9        -0.09377760
  10        -0.00000000
  11        -0.00000000
  12         0.00000000
  13        -0.00000000
  14         0.00000000
  15        -0.00000000
  16         0.06381543
  17        -0.11734777
  18        -0.13201618
  19         0.20514168
  20         0.01102416
  21         0.02965933
  22         0.12811087
  23         0.00688458
  24         0.01852224
  25        -0.00000000
  26        -0.00000000
  27        -0.00000000
  28         0.00000000
  29        -0.00000000
  30        -0.00000000
  31         0.20755751
  32         0.23174870
  33        -0.11108894
  34        -0.12403655
  35         0.02795451
  36         0.03121266
  37         0.02175250
  38         0.02428779
Sym=     6a  
Ene=    -0.7012
Spin= Alpha
Occup=    2.00000
   1        -0.00625346
   2         0.01639098
   3         0.01838290
   4        -0.02880336
   5         0.25316630
   6        -0.00851323
   7        -0.01798769
   8         0.15810222
   9        -0.00531651
  10        -0.00000000
  11        -0.00000000
  12        -0.00000000
  13         0.00000000
  14         0.00000000
  15        -0.00000000
  16        -0.01152288
  17         0.02748825
  18         0.03085095
  19        -0.01398886
  20         0.36974899
  21         0.06093994
  22        -0.00873604
  23         0.23090805
  24         0.03805696
  25         0.00000000
  26         0.00000000
  27         0.00000000
  28        -0.00000000
  29        -0.00000000
  30        -0.00000000
  31         0.00921677
  32         0.01029100
  33         0.01678142
  34         0.01873732
  35         0.16317130
  36         0.18218920
  37        -0.17420662
  38        -0.19451071
Sym=     7a  
Ene=    -0.5836
Spin= Alpha
Occup=    2.00000
   1         0.04688304
   2        -0.07037638
   3        -0.07935772
   4        -0.15564106
   5        -0.06504831
   6        -0.31410550
   7        -0.09719776
   8        -0.04062264
   9        -0.19615872
  10        -0.00000000
  11        -0.00000000
  12        -0.00000000
  13         0.00000000
  14         0.00000000
  15         0.00000000
  16         0.01553279
  17        -0.00254768
  18        -0.00316896
  19         0.08829577
  20        -0.06452271
  21         0.35523027
  22         0.05514066
  23        -0.04029440
  24         0.22184112
  25         0.00000000
  26         0.00000000
  27         0.00000000
  28        -0.00000000
  29        -0.00000000
  30         0.00000000
  31        -0.00187590
  32        -0.00209454
  33         0.17757219
  34         0.19826854
  35         0.12626268
  36         0.14097882
  37         0.08249817
  38         0.09211348
Sym=     8a  
Ene=    -0.4237
Spin= Alpha
Occup=    2.00000
   1        -0.01700839
   2         0.01552214
   3         0.01764578
   4        -0.13749350
   5        -0.01047340
   6         0.06074782
   7        -0.08586462
   8        -0.00654063
   9         0.03793698
  10         0.00000000
  11         0.00000000
  12         0.00000000
  13         0.00000000
  14        -0.00000000
  15         0.00000000
  16         0.07300081
  17        -0.22180047
  18        -0.24850615
  19         0.49670421
  20         0.06787161
  21        -0.27550871
  22         0.31019152
  23         0.04238578
  24        -0.17205504
  25        -0.00000000
  26        -0.00000000
  27         0.00000000
  28        -0.00000000
  29         0.00000000
  30        -0.00000000
  31        -0.17119898
  32        -0.19115252
  33         0.12195215
  34         0.13616589
  35         0.07615979
  36         0.08503635
  37         0.05716858
  38         0.06383168
Sym=     9a  
Ene=    -0.3600
Spin= Alpha
Occup=    0.00000
   1         0.00654126
   2        -0.01053808
   3        -0.01187269
   4        -0.06755656
   5         0.65636447
   6        -0.01593011
   7        -0.04218903
   8         0.40989927
   9        -0.00994835
  10        -0.00000000
  11        -0.00000000
  12        -0.00000000
  13         0.00000000
  14         0.00000000
  15        -0.00000000
  16         0.00281375
  17        -0.00067320
  18        -0.00080974
  19         0.03313603
  20        -0.22262073
  21         0.02737815
  22         0.02069343
  23        -0.13902653
  24         0.01709764
  25         0.00000000
  26         0.00000000
  27         0.00000000
  28         0.00000000
  29        -0.00000000
  30         0.00000000
  31        -0.01057700
  32        -0.01180977
  33         0.00993978
  34         0.01109828
  35        -0.14237288
  36        -0.15896669
  37         0.19077719
  38         0.21301261
Sym=    10a  
Ene=    -0.1601
Spin= Alpha
Occup=    0.00000
   1         0.04903186
   2        -0.19640189
   3        -0.21971535
   4        -0.01612890
   5        -0.11267509
   6        -0.13372240
   7        -0.01007249
   8        -0.07036553
   9        -0.08350957
  10        -0.00000000
  11         0.00000000
  12        -0.00000000
  13        -0.00000000
  14        -0.00000000
  15         0.00000000
  16         0.01446781
  17        -0.04186646
  18        -0.04692209
  19        -0.17980040
  20         0.71384404
  21        -0.09548829
  22        -0.11228526
  23         0.44579523
  24        -0.05963239
  25        -0.00000000
  26        -0.00000000
  27        -0.00000000
  28         0.00000000
  29         0.00000000
  30         0.00000000
  31         0.04678554
  32         0.05223848
  33         0.03691972
  34         0.04122278
  35        -0.29012238
  36        -0.32393665
  37         0.58617396
  38         0.65449357
Sym=    11a  
Ene=    -0.1433
Spin= Alpha
Occup=    0.00000
   1         0.05285970
   2        -0.25558860
   3        -0.28569335
   4        -0.51221436
   5         0.01988006
   6        -0.06007427
   7        -0.31987760
   8         0.01241509
   9        -0.03751635
  10         0.00000000
  11         0.00000000
  12         0.00000000
  13        -0.00000000
  14        -0.00000000
  15        -0.00000000
  16         0.06278849
  17        -0.27039504
  18        -0.30239076
  19        -0.29983654
  20        -0.16991151
  21        -0.41123772
  22        -0.18724776
  23        -0.10610965
  24        -0.25681774
  25        -0.00000000
  26        -0.00000000
  27        -0.00000000
  28         0.00000000
  29         0.00000000
  30         0.00000000
  31         0.40096483
  32         0.44769798
  33        -0.25081298
  34        -0.28004568
  35         0.47604019
  36         0.53152351
  37         0.15745244
  38         0.17580380
Sym=    12a  
Ene=    -0.1326
Spin= Alpha
Occup=    0.00000
   1         0.14527121
   2        -0.66418889
   3        -0.74259026
   4         0.16854366
   5         0.02506434
   6         0.47092113
   7         0.10525543
   8         0.01565267
   9         0.29409000
  10         0.00000000
  11         0.00000000
  12         0.00000000
  13        -0.00000000
  14        -0.00000000
  15         0.00000000
  16        -0.03796550
  17         0.11118748
  18         0.12460424
  19         0.07717528
  20        -0.06113415
  21        -0.05048072
  22         0.04819592
  23        -0.03817825
  24        -0.03152518
  25        -0.00000000
  26        -0.00000000
  27         0.00000000
  28        -0.00000000
  29         0.00000000
  30         0.00000000
  31         0.39422961
  32         0.44017776
  33         0.57722857
  34         0.64450557
  35        -0.05955315
  36        -0.06649418
  37        -0.12158546
  38        -0.13575646
Sym=    13a  
Ene=    -0.1221
Spin= Alpha
Occup=    0.00000
   1        -0.01595625
   2         0.09241140
   3         0.10322861
   4        -0.68347910
   5        -0.10595443
   6         0.25482192
   7        -0.42683234
   8        -0.06616849
   9         0.15913616
  10        -0.00000000
  11        -0.00000000
  12        -0.00000000
  13         0.00000000
  14         0.00000000
  15        -0.00000000
  16        -0.04517725
  17         0.17746503
  18         0.19854933
  19         0.50473908
  20         0.14094655
  21         0.34750120
  22         0.31520929
  23         0.08802105
  24         0.21701432
  25         0.00000000
  26         0.00000000
  27         0.00000000
  28         0.00000000
  29        -0.00000000
  30         0.00000000
  31         0.42651272
  32         0.47622353
  33        -0.32458038
  34        -0.36241079
  35        -0.39332380
  36        -0.43916638
  37        -0.13792901
  38        -0.15400487
Sym=    14a  
Ene=    -0.1067
Spin= Alpha
Occup=    0.00000
   1        -0.07336949
   2         0.40214612
   3         0.44930350
   4         0.07123434
   5        -0.02537486
   6         0.76267991
   7         0.04448581
   8        -0.01584658
   9         0.47629320
  10        -0.00000000
  11        -0.00000000
  12         0.00000000
  13         0.00000000
  14         0.00000000
  15        -0.00000000
  16         0.14609234
  17        -0.73977208
  18        -0.82675906
  19        -0.21484802
  20         0.03179798
  21         0.60342783
  22        -0.13417248
  23         0.01985782
  24         0.37684037
  25         0.00000000
  26        -0.00000000
  27        -0.00000000
  28         0.00000000
  29        -0.00000000
  30        -0.00000000
  31         0.06400782
  32         0.07146804
  33         0.10455219
  34         0.11673793
  35         0.14565576
  36         0.16263220
  37         0.22767768
  38         0.25421391
Sym=    15a  
Ene=     4.1725
Spin= Alpha
Occup=    0.00000
   1        -0.04446159
   2        -0.50792991
   3         4.20373651
   4        -0.03250851
   5         0.01059745
   6        -0.30765035
   7         0.20438745
   8        -0.15484318
   9         3.35315518
  10        -0.10939055
  11        -0.09030642
  12         0.23834608
  13        -0.00401180
  14         0.02404952
  15        -0.02401215
  16         0.09478273
  17         0.99664281
  18        -5.98335861
  19         0.09500753
  20        -0.01214187
  21        -0.26546823
  22        -0.47529766
  23        -0.01121743
  24         2.96034129
  25         0.10973520
  26         0.10049375
  27        -0.20456448
  28         0.00815906
  29        -0.01306718
  30         0.01336020
  31         0.04316963
  32         0.32744561
  33         0.06470014
  34         0.38040534
  35        -0.15167217
  36         0.57408720
  37        -0.06406091
  38         0.72281207
Sym=    16a  
Ene=     4.3111
Spin= Alpha
Occup=    0.00000
   1         0.01414565
   2         0.15833326
   3        -0.53586318
   4        -0.32287563
   5        -0.07391821
   6         0.17239283
   7         1.83368855
   8         0.35533108
   9        -1.05042601
  10         0.01007756
  11         0.00066591
  12        -0.10607057
  13         0.00074039
  14        -0.03815001
  15         0.01660654
  16         0.06075244
  17         0.61067929
  18        -1.81864047
  19         0.35472496
  20         0.06539940
  21         0.17809899
  22        -1.87492190
  23        -0.34335690
  24        -1.14799455
  25         0.04274362
  26         0.04757255
  27         0.23370392
  28        -0.03106069
  29         0.02307186
  30        -0.03399578
  31         0.25282441
  32        -1.82142736
  33        -0.26363517
  34         1.19086852
  35        -0.34251805
  36         2.17855654
  37        -0.13257633
  38         1.08931740
Sym=    17a  
Ene=     4.3424
Spin= Alpha
Occup=    0.00000
   1         0.06090392
   2         0.65954262
   3        -2.18881151
   4         0.24093235
   5         0.01064394
   6         0.08898222
   7        -1.16393321
   8        -0.01936757
   9        -0.32187502
  10         0.10822102
  11         0.15273353
  12         0.07575940
  13        -0.00159678
  14         0.07911201
  15         0.00151459
  16         0.04541063
  17         0.51629538
  18        -1.20518218
  19        -0.06103636
  20        -0.07860585
  21         0.02409499
  22        -0.19970317
  23         0.42116736
  24        -0.51986392
  25         0.13275212
  26         0.11642846
  27         0.24478252
  28         0.04628580
  29        -0.05646116
  30        -0.01622599
  31        -0.48733997
  32         1.79524450
  33         0.12678831
  34        -0.51474433
  35        -0.11871781
  36         0.51871908
  37        -0.46345025
  38         1.55701733
Sym=    18a  
Ene=     4.3544
Spin= Alpha
Occup=    0.00000
   1         0.08088701
   2         0.88653164
   3        -3.56235962
   4        -0.14884148
   5        -0.00967655
   6        -0.32415842
   7         0.73978430
   8         0.08377895
   9         1.27833698
  10         0.09757691
  11         0.25653035
  12         0.27441080
  13        -0.01859628
  14        -0.04341862
  15        -0.00292911
  16        -0.01418689
  17        -0.12114828
  18         0.56236220
  19         0.02626710
  20         0.06278417
  21        -0.02818316
  22        -0.00326057
  23        -0.17675401
  24         0.03678605
  25        -0.01344274
  26        -0.02730532
  27        -0.14158681
  28        -0.01474720
  29         0.03397268
  30         0.01610027
  31        -0.16319376
  32         1.17112684
  33        -0.54235846
  34         2.60088248
  35         0.10409027
  36        -0.26868308
  37         0.13950976
  38        -0.44638187
Sym=    19a  
Ene=     4.4175
Spin= Alpha
Occup=    0.00000
   1        -0.00356615
   2        -0.06089899
   3         0.56765964
   4        -0.05682413
   5         0.05217846
   6         0.10219497
   7         0.39218272
   8        -0.08498348
   9        -0.14564177
  10        -0.01315186
  11        -0.02755250
  12         0.01110514
  13         0.00062618
  14        -0.06969439
  15        -0.05468624
  16         0.00737476
  17         0.06931658
  18        -0.16780709
  19         0.01610928
  20        -0.22617473
  21        -0.14922308
  22        -0.02026486
  23         1.05127863
  24         0.55258593
  25         0.01369276
  26        -0.02124480
  27         0.00895813
  28         0.14228906
  29         0.07296620
  30         0.02931042
  31         0.30607198
  32        -0.90381205
  33        -0.24939981
  34         0.50201467
  35         0.63382872
  36        -1.70504981
  37        -0.54873696
  38         1.61781513
Sym=    20a  
Ene=     4.5528
Spin= Alpha
Occup=    0.00000
   1         0.04848988
   2         0.49374730
   3        -0.90885745
   4         0.05749238
   5         0.01600714
   6         0.28136289
   7        -0.27487883
   8        -0.01404347
   9        -0.53925998
  10         0.23618917
  11         0.10606723
  12         0.27044901
  13         0.00791441
  14        -0.09686202
  15         0.00931025
  16         0.01231125
  17         0.13511263
  18         0.34424858
  19        -0.35466284
  20         0.11627612
  21        -0.34807801
  22         0.70681131
  23        -0.16879424
  24         0.41625902
  25         0.09844009
  26         0.10491848
  27         0.09060046
  28        -0.05839934
  29         0.02324545
  30        -0.00286527
  31         0.51808447
  32        -0.43183398
  33         0.08115139
  34         0.04821214
  35        -0.17224440
  36         0.05712111
  37         0.19639851
  38        -0.43189840
Sym=    21a  
Ene=     4.6039
Spin= Alpha
Occup=    0.00000
   1         0.01053010
   2         0.13290603
   3        -0.58995650
   4         0.10482101
   5        -0.25165112
   6        -0.31965065
   7        -0.26860194
   8         0.68721278
   9         0.70440434
  10         0.10822706
  11         0.01305404
  12        -0.01551361
  13         0.02584594
  14        -0.03067926
  15         0.06562954
  16         0.00927055
  17         0.14824588
  18        -0.77773354
  19        -0.12782087
  20         0.46417252
  21         0.39047516
  22         0.06190555
  23        -1.17631802
  24        -0.74325937
  25         0.11940444
  26         0.10154178
  27         0.07212310
  28         0.02065246
  29        -0.00828640
  30         0.03043696
  31         0.35705559
  32         0.08971363
  33         0.26242890
  34        -0.05318187
  35         0.30145175
  36         0.41945679
  37        -0.22655718
  38        -0.02029638
Sym=    22a  
Ene=     4.6267
Spin= Alpha
Occup=    0.00000
   1         0.03507518
   2         0.39298432
   3        -1.36675291
   4        -0.03791969
   5         0.35673327
   6        -0.24114512
   7         0.14926090
   8        -0.76097188
   9         0.36655576
  10         0.17996754
  11         0.07840438
  12         0.02845876
  13        -0.00628062
  14         0.00307517
  15        -0.07094262
  16         0.01234768
  17         0.15096928
  18        -0.46280658
  19         0.05457634
  20        -0.53009607
  21         0.30251383
  22        -0.39838998
  23         1.27676372
  24        -0.63711937
  25         0.08067303
  26         0.06903320
  27         0.05939589
  28         0.00181169
  29         0.00753412
  30        -0.03435481
  31         0.32443398
  32         0.06779823
  33         0.35908810
  34         0.08548353
  35         0.00950375
  36        -0.04232351
  37         0.24521907
  38         0.57782193
Sym=    23a  
Ene=     4.6970
Spin= Alpha
Occup=    0.00000
   1         0.05658354
   2         0.54562220
   3        -2.18600190
   4        -0.26890663
   5        -0.11720880
   6         0.03114931
   7         1.11387429
   8         0.35163346
   9        -0.77625924
  10         0.18854792
  11         0.04153200
  12         0.21452972
  13         0.02007689
  14         0.12433737
  15         0.00465349
  16        -0.03707315
  17        -0.39158764
  18         1.94201069
  19         0.43518675
  20         0.11643480
  21        -0.24787182
  22        -1.06341557
  23        -0.23055518
  24        -0.54914333
  25        -0.15118027
  26        -0.17793032
  27        -0.20538377
  28         0.04433011
  29        -0.02039424
  30         0.01404685
  31        -0.02734188
  32        -0.23748679
  33         0.64248739
  34         0.02808878
  35         0.13158628
  36         0.02486171
  37        -0.12167882
  38         0.21750710
Sym=    24a  
Ene=     4.8957
Spin= Alpha
Occup=    0.00000
   1         0.01665352
   2         0.16460940
   3        -0.64966814
   4         0.51632212
   5        -0.62676224
   6        -0.05828408
   7        -1.40933093
   8         0.60949992
   9        -0.07775771
  10         0.03656876
  11         0.00777515
  12         0.02408725
  13        -0.03014553
  14         0.03714996
  15        -0.08850059
  16        -0.00887063
  17        -0.08598775
  18         0.36808085
  19         0.28226631
  20        -0.34826084
  21        -0.04321382
  22        -0.00443684
  23         0.57034672
  24        -0.15100997
  25        -0.07679798
  26        -0.08823266
  27        -0.04402130
  28        -0.03508117
  29        -0.05706464
  30         0.12656064
  31         0.30055141
  32         0.55193010
  33        -0.17051563
  34        -0.50458641
  35        -0.15622086
  36        -0.09598310
  37         0.09098065
  38         0.48081497
Sym=    25a  
Ene=     4.9015
Spin= Alpha
Occup=    0.00000
   1        -0.00667465
   2        -0.06018970
   3         0.34490352
   4        -0.54685069
   5        -0.54426063
   6        -0.01622001
   7         1.50963928
   8         0.65540751
   9         0.18634704
  10        -0.01923736
  11         0.00576889
  12        -0.04711405
  13        -0.00551456
  14        -0.07241745
  15        -0.08278514
  16         0.00736459
  17         0.06554539
  18        -0.23247194
  19        -0.43455373
  20        -0.31665221
  21         0.03850258
  22         0.23830399
  23         0.40006987
  24         0.26254408
  25         0.08099991
  26         0.06563839
  27         0.08938065
  28         0.01144669
  29         0.06790147
  30         0.13348380
  31        -0.26148559
  32        -0.64148579
  33         0.22959719
  34         0.75581289
  35        -0.00120563
  36        -0.54324861
  37         0.05473725
  38         0.07112801
Sym=    26a  
Ene=     5.2731
Spin= Alpha
Occup=    0.00000
   1        -0.02320972
   2        -0.18647568
   3         2.27766329
   4         0.03974853
   5        -0.01218846
   6         0.25222825
   7         0.72209080
   8         0.13648265
   9         0.79786960
  10        -0.03381156
  11         0.10757368
  12        -0.03954659
  13        -0.06632984
  14         0.07363912
  15        -0.11154317
  16         0.13080716
  17         1.25001471
  18        -4.51791876
  19         0.28933215
  20         0.12330919
  21        -0.03064973
  22        -1.59247756
  23        -0.30659652
  24         1.02265257
  25         0.07881016
  26         0.20564057
  27         0.20526775
  28        -0.08877969
  29         0.03541356
  30         0.21390983
  31        -0.26147804
  32        -0.10808432
  33         0.08109547
  34         0.08625602
  35         0.77541339
  36         0.72785282
  37         0.78299146
  38         0.33425728
Sym=    27a  
Ene=     5.6831
Spin= Alpha
Occup=    0.00000
   1        -0.00028514
   2         0.00731171
   3         0.47457074
   4         0.04250815
   5        -0.25889572
   6         0.05868873
   7         0.27815663
   8         0.20348985
   9         0.26092967
  10        -0.11479736
  11         0.10055445
  12         0.04177672
  13         0.13020234
  14        -0.06310693
  15         0.57370725
  16         0.03872967
  17         0.37082720
  18        -1.31026169
  19         0.09662789
  20        -0.20389716
  21        -0.02749321
  22        -0.52947486
  23         0.14827511
  24         0.29733882
  25        -0.19121387
  26         0.31981613
  27        -0.02957099
  28         0.14684903
  29         0.18269851
  30        -0.47247398
  31        -0.06494695
  32        -0.02903876
  33         0.10261175
  34         0.08484445
  35         0.25789010
  36         0.08034017
  37         0.24766012
  38         0.30666928
Sym=    28a  
Ene=     5.7491
Spin= Alpha
Occup=    0.00000
   1         0.01203635
   2         0.10877210
   3        -0.59952230
   4        -0.00049617
   5         0.08170566
   6        -0.03554050
   7        -0.23607373
   8        -0.09804069
   9        -0.04235987
  10        -0.22785573
  11         0.24538640
  12        -0.00607090
  13         0.55046493
  14         0.04111649
  15        -0.22099513
  16        -0.02119355
  17        -0.20230806
  18         0.72529296
  19        -0.03922222
  20         0.04628377
  21         0.00623976
  22         0.30402029
  23         0.10005870
  24        -0.14831407
  25        -0.59981245
  26         0.54005027
  27         0.01019947
  28         0.16421823
  29        -0.07045429
  30         0.21282056
  31         0.16621375
  32         0.12400478
  33         0.04073910
  34         0.00058374
  35        -0.19667118
  36        -0.13392535
  37        -0.07921668
  38        -0.04647002
Sym=    29a  
Ene=     5.8299
Spin= Alpha
Occup=    0.00000
   1        -0.01004314
   2        -0.08004184
   3         0.57362097
   4         0.05040312
   5        -0.02675902
   6         0.03855748
   7         0.05057265
   8        -0.00327663