[Molden Format]
[N_Atoms]
                     6
[Atoms] (AU)
C1          1      6          -0.00917353      0.16168549     -0.12506671
C2          2      6           0.00382627      0.10852828      2.56850379
H3          3      1           1.65950153      0.22433259     -1.35838708
H4          4      1          -1.77197557     -0.13466441     -1.16181215
H5          5      1           1.47139991      1.26664457      3.49322019
H6          6      1           1.33601946     -1.62652463      2.27161759
[Charge] (Mulliken)
  0.000000000000000E+000
  0.000000000000000E+000
  0.000000000000000E+000
  0.000000000000000E+000
  0.000000000000000E+000
  0.000000000000000E+000
[GTO] (AU)
   1
   s   6
  3.047524880E+03  1.834737132E-03
  4.573695180E+02  1.403732281E-02
  1.039486850E+02  6.884262227E-02
  2.921015530E+01  2.321844432E-01
  9.286662960E+00  4.679413484E-01
  3.163926960E+00  3.623119853E-01
   s   3
  7.868272350E+00 -1.193324198E-01
  1.881288540E+00 -1.608541517E-01
  5.442492580E-01  1.143456438E+00
   s   1
  1.687144782E-01  1.000000000E+00
   p   3
  7.868272350E+00  6.899906659E-02
  1.881288540E+00  3.164239610E-01
  5.442492580E-01  7.443082909E-01
   p   1
  1.687144782E-01  1.000000000E+00
   d   1
  8.000000000E-01  1.000000000E+00
 
   2
   s   6
  3.047524880E+03  1.834737132E-03
  4.573695180E+02  1.403732281E-02
  1.039486850E+02  6.884262227E-02
  2.921015530E+01  2.321844432E-01
  9.286662960E+00  4.679413484E-01
  3.163926960E+00  3.623119853E-01
   s   3
  7.868272350E+00 -1.193324198E-01
  1.881288540E+00 -1.608541517E-01
  5.442492580E-01  1.143456438E+00
   s   1
  1.687144782E-01  1.000000000E+00
   p   3
  7.868272350E+00  6.899906659E-02
  1.881288540E+00  3.164239610E-01
  5.442492580E-01  7.443082909E-01
   p   1
  1.687144782E-01  1.000000000E+00
   d   1
  8.000000000E-01  1.000000000E+00
 
   3
   s   3
  1.873113696E+01  3.349460434E-02
  2.825394365E+00  2.347269535E-01
  6.401216923E-01  8.137573261E-01
   s   1
  1.612777588E-01  1.000000000E+00
 
   4
   s   3
  1.873113696E+01  3.349460434E-02
  2.825394365E+00  2.347269535E-01
  6.401216923E-01  8.137573261E-01
   s   1
  1.612777588E-01  1.000000000E+00
 
   5
   s   3
  1.873113696E+01  3.349460434E-02
  2.825394365E+00  2.347269535E-01
  6.401216923E-01  8.137573261E-01
   s   1
  1.612777588E-01  1.000000000E+00
 
   6
   s   3
  1.873113696E+01  3.349460434E-02
  2.825394365E+00  2.347269535E-01
  6.401216923E-01  8.137573261E-01
   s   1
  1.612777588E-01  1.000000000E+00
 
[MO]
Sym=     1a  
Ene=     0.0000
Spin= Alpha
Occup=    1.99971
   1         0.98796808
   2         0.02120554
   3        -0.01414780
   4         0.00020236
   5        -0.00027551
   6         0.00131556
   7         0.00037759
   8         0.00042386
   9         0.00119893
  10        -0.00176511
  11        -0.00198302
  12        -0.00151208
  13         0.00007928
  14         0.00003304
  15         0.00005142
  16         0.14132093
  17         0.00303316
  18        -0.00085101
  19         0.00061412
  20        -0.00007475
  21         0.00035875
  22        -0.00071581
  23         0.00023887
  24        -0.00113453
  25        -0.00029442
  26        -0.00026725
  27        -0.00056386
  28         0.00004160
  29        -0.00001516
  30        -0.00001334
  31        -0.00230925
  32         0.00124939
  33        -0.00229126
  34         0.00170741
  35        -0.00016656
  36         0.00073236
  37        -0.00002609
  38         0.00133893
Sym=     2a  
Ene=     0.0000
Spin= Alpha
Occup=    1.99969
   1        -0.14150535
   2        -0.00261279
   3         0.00667325
   4         0.00031796
   5        -0.00022611
   6        -0.00066634
   7         0.00204619
   8         0.00006575
   9         0.00169308
  10         0.00024275
  11         0.00020129
  12        -0.00079801
  13         0.00001527
  14         0.00012962
  15         0.00013096
  16         0.98762304
  17         0.02366734
  18        -0.01891573
  19         0.00370970
  20         0.00083788
  21        -0.00347038
  22        -0.00139127
  23         0.00054516
  24         0.00061495
  25        -0.00167813
  26        -0.00206411
  27        -0.00110743
  28         0.00018988
  29        -0.00017584
  30        -0.00001494
  31        -0.00005156
  32        -0.00184824
  33         0.00059566
  34         0.00119057
  35        -0.00087287
  36         0.00319500
  37        -0.00097923
  38         0.00205250
Sym=     3a  
Ene=     0.0000
Spin= Alpha
Occup=    1.98246
   1        -0.13063007
   2         0.27448285
   3         0.20028471
   4         0.00387846
   5        -0.00705778
   6        -0.01150477
   7        -0.00658067
   8        -0.00117830
   9        -0.04469865
  10         0.00882644
  11        -0.01273156
  12         0.01606820
  13         0.00092897
  14         0.00075429
  15        -0.00025499
  16        -0.14199491
  17         0.26413543
  18         0.29394827
  19         0.06091851
  20         0.00228826
  21        -0.00036605
  22         0.01404963
  23        -0.00489413
  24         0.02771026
  25         0.00480670
  26         0.00302592
  27         0.00459442
  28        -0.00059439
  29         0.00531166
  30         0.00730815
  31         0.10675835
  32         0.03911673
  33         0.10022436
  34         0.02265932
  35         0.12941875
  36         0.05352809
  37         0.10771719
  38         0.03065683
Sym=     4a  
Ene=     0.0000
Spin= Alpha
Occup=    1.97364
   1         0.10828177
   2        -0.23910176
   3        -0.27143717
   4        -0.05557970
   5         0.02092371
   6         0.24295035
   7        -0.03629893
   8         0.01601313
   9         0.08693396
  10        -0.02378646
  11         0.01146434
  12         0.00191202
  13        -0.00423227
  14         0.01091716
  15        -0.00035868
  16        -0.10703515
  17         0.19789029
  18         0.25199770
  19         0.10217299
  20         0.04178349
  21         0.05388659
  22         0.06342430
  23         0.01607933
  24         0.00605140
  25         0.01158094
  26         0.00346536
  27        -0.00676817
  28         0.00521768
  29         0.00790750
  30         0.00616256
  31        -0.20002279
  32        -0.09786447
  33        -0.11844280
  34        -0.02576227
  35         0.15633996
  36         0.08782072
  37         0.07226200
  38         0.01382124
Sym=     5a  
Ene=     0.0000
Spin= Alpha
Occup=    1.97273
   1         0.01436821
   2        -0.03765635
   3        -0.02812202
   4         0.45790572
   5         0.07525358
   6         0.03120618
   7         0.20054606
   8         0.04409769
   9         0.03307436
  10        -0.00604573
  11        -0.00020559
  12         0.00415285
  13        -0.00775704
  14        -0.03972350
  15        -0.00635061
  16        -0.01018148
  17         0.01651502
  18         0.01474918
  19         0.03703865
  20         0.00130299
  21        -0.00704569
  22        -0.03564320
  23        -0.01067138
  24         0.00007413
  25         0.00191305
  26         0.00012298
  27        -0.00055378
  28        -0.00113838
  29        -0.00941805
  30        -0.00052795
  31         0.21414764
  32         0.18059213
  33        -0.26979271
  34        -0.18312214
  35         0.00447338
  36        -0.00809106
  37         0.02167177
  38         0.00267629
Sym=     6a  
Ene=     0.0000
Spin= Alpha
Occup=    1.95974
   1         0.02767268
   2        -0.04636883
   3        -0.11073074
   4         0.00369210
   5         0.01823062
   6        -0.25908593
   7         0.04153208
   8         0.00023256
   9        -0.14772023
  10         0.01597198
  11         0.00191096
  12        -0.01132008
  13         0.00445493
  14         0.01763855
  15         0.01172352
  16         0.05743633
  17        -0.12944791
  18        -0.11749691
  19         0.30605023
  20         0.19768846
  21         0.17926750
  22         0.25895380
  23         0.11012391
  24        -0.04652192
  25         0.03027861
  26        -0.00343714
  27        -0.01956320
  28         0.02399186
  29         0.00579895
  30         0.00055674
  31         0.02649684
  32        -0.05625977
  33         0.09534268
  34         0.14053677
  35         0.23296628
  36         0.24080637
  37        -0.05034508
  38        -0.04082067
Sym=     7a  
Ene=     0.0000
Spin= Alpha
Occup=    1.94591
   1         0.08251517
   2        -0.18844484
   3        -0.19707763
   4        -0.00038411
   5        -0.06102125
   6        -0.32869744
   7        -0.09837484
   8        -0.02632206
   9        -0.14988543
  10         0.00851933
  11         0.00481619
  12        -0.00466978
  13         0.00019157
  14        -0.01979217
  15        -0.00689972
  16        -0.03450291
  17         0.07522666
  18         0.28744707
  19        -0.16898763
  20        -0.16818102
  21         0.35483998
  22        -0.22200766
  23        -0.11867432
  24         0.21415905
  25         0.00217923
  26         0.01942533
  27        -0.03170955
  28        -0.01192248
  29         0.02174922
  30         0.00990434
  31         0.08942919
  32         0.19631209
  33        -0.00607838
  34        -0.06472699
  35        -0.00371448
  36        -0.02475875
  37         0.07660341
  38         0.13637894
Sym=     8a  
Ene=     0.0000
Spin= Alpha
Occup=    1.92806
   1         0.00940874
   2        -0.03100786
   3        -0.03450414
   4         0.02205730
   5        -0.25055447
   6        -0.00481880
   7         0.07959100
   8        -0.20951820
   9        -0.02078621
  10        -0.00013010
  11         0.00632130
  12        -0.00682067
  13        -0.00683944
  14         0.02402175
  15        -0.01664250
  16         0.04077677
  17        -0.08748945
  18        -0.21413466
  19         0.23671023
  20        -0.24280365
  21        -0.07556560
  22         0.20585738
  23        -0.08911803
  24        -0.09368969
  25         0.01521983
  26         0.00482457
  27        -0.00464289
  28        -0.02730010
  29        -0.02043662
  30         0.02142662
  31        -0.05092425
  32        -0.12901474
  33         0.03945322
  34         0.09063575
  35        -0.04762215
  36        -0.04701981
  37         0.25238500
  38         0.25001938
Sym=     9a  
Ene=     0.0000
Spin= Alpha
Occup=    0.05753
   1        -0.00144190
   2        -0.03525617
   3         0.10249091
   4         0.09368473
   5        -0.56908130
   6         0.03287849
   7         0.22983484
   8        -0.37715216
   9         0.04683389
  10         0.00136719
  11         0.00124543
  12        -0.00140062
  13        -0.01017597
  14         0.02658300
  15        -0.01277054
  16        -0.02088988
  17         0.17856336
  18        -0.16145667
  19        -0.30475543
  20         0.39850206
  21         0.03626364
  22        -0.03360813
  23         0.14138716
  24         0.00129797
  25        -0.00413623
  26        -0.06455306
  27         0.02186874
  28         0.03824797
  29        -0.03461410
  30         0.08156890
  31        -0.01796506
  32        -0.12806221
  33         0.00674016
  34         0.09302053
  35         0.09020655
  36         0.01306646
  37        -0.16196584
  38         0.00937167
Sym=    10a  
Ene=     0.0000
Spin= Alpha
Occup=    0.03394
   1        -0.10586039
   2         0.51004581
   3         0.60556921
   4         0.13116000
   5         0.00423942
   6         0.55496454
   7         0.21286286
   8        -0.01571872
   9         0.34106217
  10        -0.01628251
  11        -0.03566172
  12        -0.05877100
  13         0.01488286
  14         0.05646503
  15         0.00625413
  16         0.04423645
  17        -0.08095224
  18        -0.49734721
  19         0.02809978
  20        -0.23037412
  21         0.77473542
  22         0.14614408
  23        -0.03961196
  24         0.41148392
  25        -0.05323293
  26        -0.02788735
  27         0.09023500
  28         0.02041879
  29        -0.04893326
  30        -0.02456420
  31        -0.13427811
  32        -0.20081382
  33         0.05300026
  34         0.16562241
  35        -0.05810889
  36        -0.11341034
  37        -0.15881646
  38        -0.18027230
Sym=    11a  
Ene=     0.0000
Spin= Alpha
Occup=    0.02363
   1        -0.01205752
   2         0.03968184
   3         0.30771726
   4        -0.38384410
   5        -0.09951764
   6         0.25191682
   7        -0.33137267
   8        -0.02036922
   9         0.21894354
  10        -0.01847786
  11         0.00279152
  12         0.00146460
  13        -0.01300492
  14        -0.02922904
  15        -0.00431443
  16         0.04650558
  17        -0.35126040
  18        -0.08742676
  19         0.66291016
  20         0.53490543
  21         0.10692212
  22        -0.34504779
  23        -0.00587775
  24         0.51011469
  25         0.00233584
  26         0.05564756
  27         0.10418450
  28        -0.04622828
  29         0.07414743
  30         0.04174864
  31         0.20427899
  32         0.53769198
  33        -0.16958689
  34        -0.38634128
  35        -0.15256914
  36        -0.41805012
  37         0.12434463
  38         0.26527431
Sym=    12a  
Ene=     0.0000
Spin= Alpha
Occup=    0.02140
   1        -0.00904933
   2         0.00499787
   3         0.13143641
   4         0.24098828
   5         0.17409225
   6        -0.18530551
   7         0.25966982
   8        -0.01083397
   9         0.01085409
  10         0.01474318
  11         0.02729177
  12        -0.03716260
  13        -0.02877777
  14         0.06926444
  15         0.05891652
  16        -0.02681092
  17         0.19238557
  18        -0.02390788
  19        -0.19115031
  20         0.50402452
  21         0.26903427
  22         0.11214417
  23         0.27507892
  24        -0.05285117
  25        -0.00018835
  26        -0.00980021
  27        -0.07304689
  28        -0.10558106
  29        -0.11543841
  30        -0.07146861
  31        -0.25685742
  32        -0.39721294
  33         0.13519877
  34         0.19902225
  35        -0.37879189
  36        -0.33452568
  37         0.35244954
  38         0.34176970
Sym=    13a  
Ene=     0.0000
Spin= Alpha
Occup=    0.01737
   1        -0.00785121
   2        -0.06026415
   3         0.09963451
   4        -0.06547722
   5         0.12862918
   6         0.37834169
   7        -0.11856468
   8        -0.01989807
   9         0.10019120
  10         0.00801195
  11         0.03658362
  12        -0.03582988
  13        -0.02509879
  14        -0.05610857
  15         0.00781150
  16         0.14605184
  17        -0.92808505
  18        -0.35436728
  19        -0.59086692
  20         0.08698142
  21         0.07488522
  22         0.01332610
  23         0.06214524
  24         0.05267092
  25         0.09256620
  26         0.07998180
  27         0.06455573
  28        -0.05020984
  29         0.08069434
  30        -0.00614578
  31         0.09481297
  32         0.16743591
  33        -0.03385036
  34         0.04803674
  35         0.28557099
  36         0.34906750
  37         0.30493846
  38         0.41871373
Sym=    14a  
Ene=     0.0000
Spin= Alpha
Occup=    0.01477
   1         0.12915130
   2        -0.82562769
   3        -0.13945238
   4         0.44743304
   5         0.10915715
   6         0.50601559
   7        -0.04608576
   8        -0.01441396
   9        -0.01467172
  10         0.05340697
  11         0.07861775
  12         0.10557775
  13        -0.01900939
  14         0.00725244
  15        -0.00296909
  16        -0.00946588
  17         0.01390385
  18         0.01672800
  19         0.16824818
  20         0.07022694
  21        -0.17402906
  22        -0.10822277
  23        -0.06682826
  24         0.27590731
  25        -0.02066208
  26        -0.02984847
  27         0.06030185
  28         0.00972821
  29        -0.04680543
  30        -0.02378407
  31         0.20326622
  32         0.20969414
  33         0.48139950
  34         0.52841792
  35        -0.09580388
  36        -0.02450841
  37        -0.07728605
  38         0.01417270
Sym=    15a  
Ene=     0.0000
Spin= Alpha
Occup=    0.01326
   1         0.06292524
   2        -0.43360345
   3        -0.13160589
   4        -0.72622066
   5        -0.05506068
   6         0.23803942
   7         0.39658456
   8         0.01991308
   9         0.05249643
  10         0.06761219
  11         0.05084857
  12         0.02219155
  13        -0.00623190
  14         0.13257457
  15         0.05054832
  16        -0.07417103
  17         0.73406905
  18        -0.25145930
  19        -0.34577710
  20        -0.12504403
  21         0.26881318
  22         0.49324567
  23         0.18846201
  24        -0.23372914
  25        -0.06722765
  26        -0.12049282
  27        -0.12250892
  28        -0.02476986
  29        -0.06277250
  30        -0.07932280
  31         0.28388038
  32         0.26867436
  33         0.10822532
  34         0.05639979
  35        -0.18000606
  36        -0.10119809
  37         0.00265714
  38        -0.11264539
Sym=    16a  
Ene=     0.0000
Spin= Alpha
Occup=    0.00969
   1         0.00814434
   2        -0.16157245
   3        -0.01334485
   4         0.30817123
   5         0.17562123
   6         0.07356347
   7        -0.66438376
   8        -0.15110748
   9         0.20455208
  10         0.06485377
  11         0.03415060
  12        -0.01742975
  13        -0.00831534
  14        -0.32345589
  15        -0.02693114
  16        -0.04507945
  17         0.74356794
  18        -0.68637660
  19        -0.01691741
  20         0.13168827
  21         0.48862417
  22         0.25685060
  23        -0.08214322
  24        -0.54320223
  25        -0.01185148
  26        -0.04773952
  27        -0.20928424
  28         0.03249956
  29         0.35714915
  30         0.07602586
  31         0.25165279
  32         0.05479015
  33        -0.07159479
  34        -0.02420897
  35         0.09995958
  36        -0.07299216
  37         0.03165045
  38         0.07542214
Sym=    17a  
Ene=     0.0000
Spin= Alpha
Occup=    0.00862
   1        -0.01543557
   2         0.61137087
   3        -0.25135047
   4         0.05534289
   5         0.17213140
   6         0.11212645
   7        -0.37311057
   8        -0.13879454
   9        -0.44818416
  10        -0.19739574
  11        -0.14184723
  12         0.17511315
  13        -0.00316253
  14        -0.08674915
  15         0.09360562
  16        -0.02609599
  17         0.64799791
  18        -0.31751517
  19        -0.30817958
  20         0.21839264
  21        -0.32695680
  22         0.51768283
  23        -0.09100798
  24         0.54314203
  25        -0.24081071
  26        -0.21976144
  27         0.21772223
  28        -0.05187784
  29         0.16933680
  30        -0.16919215
  31         0.02217054
  32         0.01401170
  33        -0.09574016
  34        -0.11950944
  35        -0.05188481
  36        -0.11155750
  37        -0.03041338
  38         0.29038430
Sym=    18a  
Ene=     0.0000
Spin= Alpha
Occup=    0.00640
   1        -0.00020479
   2        -0.04872686
   3         0.54923566
   4         0.12429986
   5        -0.15541601
   6         0.08910360
   7        -0.30871750
   8        -0.01735644
   9         0.08908595
  10        -0.06582042
  11         0.02189438
  12         0.05253341
  13        -0.10323028
  14        -0.06646984
  15        -0.21138303
  16         0.01366395
  17         0.33715051
  18        -0.73494525
  19         0.00463804
  20        -0.38439566
  21        -0.04545784
  22         0.03376978
  23         0.78354913
  24         0.45754128
  25        -0.15549025
  26         0.01440901
  27         0.11978214
  28        -0.48073591
  29         0.00437759
  30         0.37253532
  31         0.06434194
  32         0.01911891
  33        -0.06171715
  34        -0.08210488
  35        -0.07390391
  36        -0.03450841
  37         0.32317507
  38         0.02070736
Sym=    19a  
Ene=     0.0000
Spin= Alpha
Occup=    0.00463
   1         0.01046393
   2         0.53182564
   3        -0.55007329
   4         0.02498680
   5        -0.05970308
   6        -0.23089225
   7        -0.11323182
   8         0.02710917
   9         0.77395933
  10         0.40430184
  11        -0.31060534
  12        -0.20248948
  13        -0.02410427
  14        -0.07687058
  15         0.01886618
  16         0.00497139
  17        -0.18213558
  18        -0.08638357
  19        -0.01887674
  20        -0.02114313
  21        -0.20995597
  22         0.18207017
  23         0.04529313
  24         0.38997658
  25         0.39105211
  26        -0.32865894
  27         0.07059989
  28        -0.19679155
  29         0.00343207
  30        -0.07690491
  31         0.43650394
  32         0.03065018
  33         0.36105753
  34         0.01344510
  35        -0.09733793
  36        -0.08229699
  37        -0.02194422
  38        -0.04762638
Sym=    20a  
Ene=     0.0000
Spin= Alpha
Occup=    0.00410
   1        -0.00788648
   2         0.21696494
   3        -0.37290632
   4        -0.06688323
   5         0.26167600
   6         0.12963938
   7         0.22964913
   8         0.08640967
   9        -0.36670344
  10        -0.03465967
  11        -0.13241566
  12         0.10969233
  13        -0.05569097
  14         0.16387852
  15        -0.34809902
  16         0.00396413
  17         0.23585877
  18        -0.09415769
  19        -0.04218351
  20         0.22971617
  21         0.09088048
  22        -0.26805785
  23        -0.28322802
  24        -0.25021158
  25         0.43197578
  26        -0.50196143
  27        -0.00934003
  28         0.10418633
  29        -0.08501477
  30         0.41655838
  31        -0.22677032
  32         0.11294626
  33         0.04868784
  34        -0.01787394
  35         0.21898007
  36        -0.02849108
  37         0.03904587
  38         0.19011579
Sym=    21a  
Ene=     0.0000
Spin= Alpha
Occup=    0.00401
   1         0.00704314
   2         0.23740921
   3         0.13619390
   4        -0.01622858
   5         0.08869710
   6        -0.08323379
   7         0.21766966
   8         0.13815164
   9         0.47909616
  10         0.12322995
  11        -0.09300865
  12        -0.12890541
  13         0.11579497
  14         0.11465931
  15        -0.17048287
  16         0.01299133
  17         0.32493922
  18        -0.80661944
  19        -0.10947998
  20         0.18695081
  21        -0.13480877
  22        -0.19650514
  23        -0.22326400
  24         0.32076027
  25        -0.62018572
  26         0.46843674
  27         0.10411074
  28         0.23363497
  29         0.00081628
  30         0.23934466
  31         0.21256466
  32        -0.07477969
  33         0.48789335
  34        -0.21374681
  35         0.27421864
  36        -0.06590276
  37         0.23577751
  38         0.01953178
Sym=    22a  
Ene=     0.0000
Spin= Alpha
Occup=    0.00263
   1         0.00465967
   2        -0.48019684
   3         0.93902075
   4         0.21183948
   5        -0.04903092
   6        -0.29779980
   7        -0.06389838
   8         0.07424480
   9         0.77246080
  10         0.18768414
  11         0.16155226
  12        -0.21580750
  13         0.11006586
  14         0.13275298
  15         0.00741599
  16        -0.01157497
  17         0.19472655
  18        -0.71269458
  19        -0.02858661
  20        -0.03488985
  21        -0.25244902
  22         0.07982406
  23         0.01759023
  24         0.73183309
  25        -0.04312354
  26        -0.10535468
  27         0.12556459
  28        -0.20804015
  29         0.63129646
  30         0.03433478
  31        -0.72195112
  32         0.91119716
  33         0.30363364
  34        -0.40343559
  35         0.01037719
  36        -0.33979346
  37        -0.22693164
  38         0.10946827
Sym=    23a  
Ene=     0.0000
Spin= Alpha
Occup=    0.00249
   1        -0.01822935
   2         0.70948431
   3        -0.90328410
   4         0.16147621
   5        -0.02823407
   6         0.44955846
   7        -0.02687837
   8        -0.03995157
   9        -0.76055940
  10        -0.20059354
  11        -0.19285064
  12         0.17400029
  13        -0.33195187
  14         0.24347965
  15         0.35013160
  16         0.02935640
  17        -0.04331838
  18         0.53558047
  19         0.06067498
  20        -0.19295147
  21         0.15822369
  22        -0.48353594
  23         0.23424234
  24        -0.46684053
  25         0.18205843
  26         0.19493325
  27        -0.38331264
  28        -0.09859029
  29         0.16449759
  30        -0.08409480
  31        -0.04856735
  32         0.19988305
  33         0.42457459
  34        -0.58022680
  35         0.53769741
  36        -0.30479858
  37         0.25127168
  38         0.08227984
Sym=    24a  
Ene=     0.0000
Spin= Alpha
Occup=    0.00219
   1        -0.00864910
   2         0.44865405
   3        -0.69473157
   4         0.04848907
   5        -0.06187760
   6         0.30136085
   7         0.01130909
   8         0.02676639
   9        -0.60594031
  10        -0.29427083
  11         0.08045841
  12         0.06896516
  13         0.84403198
  14        -0.01336079
  15         0.05848700
  16         0.00476957
  17        -0.15485877
  18         0.74458555
  19         0.01303412
  20         0.05686735
  21         0.10418118
  22        -0.07129598
  23        -0.10639934
  24        -0.38654203
  25         0.24679716
  26        -0.01032522
  27        -0.24552377
  28        -0.11243285
  29         0.05956410
  30         0.03951284
  31         0.08066407
  32        -0.06355571
  33         0.18413158
  34        -0.21540680
  35        -0.08596814
  36         0.19665966
  37         0.26294126
  38        -0.35470432
Sym=    25a  
Ene=     0.0000
Spin= Alpha
Occup=    0.00180
   1        -0.00619959
   2        -0.28520708
   3         1.18251179
   4        -0.19276108
   5         0.63189643
   6        -0.20072260
   7         0.32410938
   8        -0.71536749
   9         0.69719104
  10         0.05037724
  11         0.21223235
  12        -0.27868919
  13         0.15495875
  14        -0.04889772
  15         0.45213915
  16         0.01303336
  17         0.45110674
  18        -1.29008270
  19         0.04799725
  20        -0.28084111
  21        -0.30648855
  22        -0.21715607
  23         0.52642354
  24         0.86134368
  25        -0.04693651
  26        -0.14943577
  27         0.17664247
  28        -0.11918775
  29        -0.24134698
  30         0.24208427
  31         0.04605027
  32        -0.18225965
  33        -0.14609859
  34         0.25436315
  35         0.48514749
  36        -0.55190943
  37        -0.04734250
  38         0.34405283
Sym=    26a  
Ene=     0.0000
Spin= Alpha
Occup=    0.00144
   1         0.03789937
   2        -0.94737559
   3         1.19100494
   4         0.08954685
   5        -0.37682746
   6        -0.34344209
   7        -0.22255820
   8         0.38543354
   9         0.78745755
  10         0.04774234
  11         0.24328333
  12         0.18535137
  13         0.07157171
  14         0.06237378
  15         0.01735947
  16         0.04747508
  17        -0.11965365
  18        -0.63453627
  19        -0.15863171
  20         0.01507539
  21         0.00208849
  22         0.10501132
  23        -0.10400555
  24         0.38131061
  25        -0.05203797
  26        -0.36457227
  27         0.66514280
  28         0.07226777
  29        -0.13569322
  30        -0.31244390
  31         0.07275169
  32         0.09779206
  33        -0.04382845
  34        -0.09687654
  35         0.72342681
  36        -0.69894492
  37         0.66389866
  38        -0.50882957
Sym=    27a  
Ene=     0.0000
Spin= Alpha
Occup=    0.00138
   1         0.05391614
   2        -0.57022421
   3        -0.54010485
   4        -0.04159125
   5         0.21452655
   6        -0.20932007
   7         0.36125202
   8        -0.22388409
   9        -0.24629171
  10        -0.21330657
  11        -0.03668341
  12         0.71484320
  13        -0.02425410
  14        -0.10516596
  15         0.17337066
  16         0.01514694
  17        -1.04634790
  18         1.15987990
  19         0.14465167
  20        -0.14599150
  21         0.46519848
  22        -0.19716950
  23         0.22349159
  24        -1.01951221
  25         0.03354080
  26        -0.02993213
  27         0.49385076
  28         0.12202187
  29         0.21683016
  30         0.24730048
  31         0.09610308
  32        -0.40036129
  33         0.51290791
  34        -0.37738585
  35        -0.41191295
  36         0.29292981
  37        -0.20346304
  38         0.13982199
Sym=    28a  
Ene=     0.0000
Spin= Alpha
Occup=    0.00111
   1        -0.02624979
   2         0.32821558
   3         0.27435672
   4         0.00599874
   5        -0.13308480
   6         0.07922320
   7         0.44569509
   8         0.08862912
   9         0.14451399
  10         0.06729568
  11        -0.16020739
  12        -0.17462165
  13        -0.09379889
  14        -0.62097551
  15         0.18363974
  16         0.01825537
  17         0.23985034
  18        -0.47725732
  19         0.05536848
  20        -0.07604453
  21        -0.15877889
  22        -0.05534360
  23         0.37080698
  24         0.67728374
  25         0.14048252
  26        -0.09991960
  27        -0.02396866
  28         0.65150396
  29         0.02949132
  30         0.19142312
  31        -0.61307514
  32         0.25821408
  33         0.22697557
  34         0.25425402
  35        -0.40844197
  36        -0.02268382
  37         0.67620849
  38        -0.29552673
Sym=    29a  
Ene=     0.0000
Spin= Alpha
Occup=    0.00100
   1        -0.00423982
   2         0.14186890
   3        -0.81297523
   4         0.09536472
   5         0.02776035
   6        -0.15866574
   7        -0.57681959
   8        -0.01259183