   This run of MOLCAS is using the pymolcas driver

                             OPE
                             OPE          NMOL  CASOP  ENMOLC A   SO
                 OPE        NMOLC        AS  OP EN  MO LC     AS  OP
                OPENM       OL CA        SO  PE NM  OL CA     SOP EN
                OP EN      MO   LC       AS  OP ENMOL  CASO   PENMOL
                OP  EN     MO   LC       AS  OP EN     MO     LC ASO
               OP   E  NMOL  C  AS       OP  EN MO     LC     AS  OP
               OP  E   NMO   LC AS        OPEN  MO     LCASOP EN   M
               O  PEN   MO  LCA  SO
            OPE   NMO   L   CAS    OP
        OPENMOL  CASOP     ENMOL   CASOPE
     OPENMOLCA   SOPENMOLCASOPEN   MOLCASOPE
    OPENMOLCAS   OP           EN   MOL    CAS
    OPENMOLCAS       OP  ENM        O     LCA
    OPENMOLCAS    OPEN  MOLCASO     P  E  NMO
    OPENMOLCAS     OP               E  N  MOL
    OPENMOLCA   SO           PENM   O  L  CAS    OPEN    MO    LCAS
    OPENMOLCA   SOP           ENM   O  L  CAS   OP  EN  MOLC  AS   O
    OPENMOLCA   SOPE           NM      O  LCA   S      OP  EN MO
    OPENMOLC                AS         O  PEN   M      OL  CA  SOPE
    OPENMO        LCASOPE  NMOL        C  ASO   P      ENMOLC     AS
    OPE     NMO      LCA  SO     P     E   NM   OL  CA SO  PE N   MO
          OPENMOLCA            SOPE   NMO        LCAS  O    P  ENMO
     OPENMOLCASOPENMOLCASOPENMOLCASOPENMOLCA
        OPENMOLCASOPENMOLCASOPENMOLCASOPE
            OPENMOLCASOPENMOLCASOPENM
               OPENMOLCASOPENMOLCA        version: 26.02
                   OPENMOLCASO
                       OPE                tag: 684-gcd9c692f8

 OpenMolcas is free software; you can redistribute it and/or modify it
 under the terms of the GNU Lesser General Public License version 2.1.
 OpenMolcas is distributed in the hope that it will be useful, but it
 is provided "as is" and without any express or implied warranties.
 For more details see the full text of the license in the file
 LICENSE or in <http://www.gnu.org/licenses/>.

                 Copyright (C) The OpenMolcas Authors
           For the author list and the recommended citation,
                   consult the file CONTRIBUTORS.md

           *************************************************
           * pymolcas version py2.32                       *
           *   build 5fe1e42a8a423461f97be6f8128d9c45      *
           *   (after the EMIL interpreter by V. Veryazov) *
           *************************************************

configuration info
------------------
Host name: cpn-d01-33.core.ccr.buffalo.edu (Linux)
C Compiler ID: Intel
C flags: -std=gnu99 -gcc-sys
Fortran Compiler ID: Intel
Fortran flags: -fpp -i8 -heap-arrays
Definitions: _MOLCAS_;_I8_;_LINUX_;_MOLCAS_MPP_;_SCALAPACK_;_GA_
Parallel: ON (GA=ON)


   -----------------------------------------------------------------------------------------------------------------------------------------------------------
  |
  |           Project: 07_MECI_CASPT2
  |    Submitted from: /vscratch/grp-cyberwksp21/sbakenhaster/wed_7_8/openmolcas_pyspawn/Tutorials_OpenMolcas/07_MECI_CASPT2
  |      Scratch area: /vscratch/grp-cyberwksp21/sbakenhaster/wed_7_8/openmolcas_pyspawn/Tutorials_OpenMolcas/07_MECI_CASPT2/scr_07_MECI_CASPT2/07_MECI_CASPT2
  |   Save outputs to: /vscratch/grp-cyberwksp21/sbakenhaster/wed_7_8/openmolcas_pyspawn/Tutorials_OpenMolcas/07_MECI_CASPT2
  |            Molcas: /projects/academic/cyberwksp21/SOFTWARE_2026/OpenMolcas
  |
  | Scratch area is empty
  |
  |    MOLCAS_DRIVER = /projects/academic/cyberwksp21/SOFTWARE_2026/OpenMolcas/pymolcas
  |   MOLCAS_MAXITER = 900
  |    MOLCAS_MOLDEN = YES
  |    MOLCAS_NNODES = 1
  |  MOLCAS_NODELIST = cpn-b04-12-02
  |    MOLCAS_NPROCS = 1
  |     MOLCAS_PRINT = NORMAL
  |    MOLCAS_SOURCE = /projects/academic/cyberwksp21/SOFTWARE_2026/OpenMolcas
  | MOLCAS_STRUCTURE = 0
  |      MOLCAS_TRAP = YES
  |
   -----------------------------------------------------------------------------------------------------------------------------------------------------------

++ ---------   Input file   ---------

&GATEWAY
  Coord
  6
  Ethylene
  C  -0.015890   0.073533  -0.059560
  C   0.012427  -0.002469   1.315694
  H   0.857876   0.147015  -0.710529
  H  -0.936471  -0.011696  -0.626761
  H   0.764558   0.663382   1.762573
  H   0.740774  -0.869764   1.328583
  Basis = 6-31G*
  Group = NoSym
  RICD
  Constraints
    a = Ediff 1 2
    Value
    a = 0.000
  End of Constraints

>>> DO WHILE

  &SEWARD

  >>> IF (ITER == 1)

    &SCF
          Charge = 0
          Spin   = 1

  >>> END IF

  &RASSCF
      Title = Ethylene SA-3-CAS(2,2)SCF
      symmetry = 1
      Nactel = 2 0 0
      Spin = 1
      Inactive = 7
      Ras2 = 2
      ciroot  =  3  3  1

  &CASPT2
      RLXRoot = 1
      IPEA = 0.00
      IMAGinary = 0.20
      XMultiState = All
      maxiter = 2000
      FROZen = 0

  &SLAPAF

>>> END DO

-- ----------------------------------

--- Start Module: gateway at Wed Jul  8 11:00:10 2026 ---
 
()()()()()()()()()()()()()()()()()()()()()()()()()()()()()()()()()()()()()()()()()()()()()()()()()()

                                              &GATEWAY

                       only a single process is used, running in SERIAL mode
                       available to each process: 2.0 GB of memory, 1 thread?
                                            pid: 1834504
()()()()()()()()()()()()()()()()()()()()()()()()()()()()()()()()()()()()()()()()()()()()()()()()()()
 
 
++    Symmetry information:
      ---------------------
 
                    Character Table for C1 
 
                             E  
                    a        1  x, y, xy, Rz, z, xz, Ry, yz, Rx, I
--
 
 
++    Basis set information:
      ----------------------
 
 
      Basis set label: C.6-31G**....
 
      Electronic valence basis set:
      ------------------
      Associated Effective Charge   6.000000 au
      Associated Actual Charge      6.000000 au
      Nuclear Model: Point charge
 
      Shell  nPrim  nBasis  Cartesian Spherical Contaminant
         s      10       3        X                  
         p       4       2        X                  
         d       1       1        X                  
 
 
      Basis set label: H.6-31G....
 
      Electronic valence basis set:
      ------------------
      Associated Effective Charge   1.000000 au
      Associated Actual Charge      1.000000 au
      Nuclear Model: Point charge
 
      Shell  nPrim  nBasis  Cartesian Spherical Contaminant
         s       4       2        X                  
--
 
 
++    Molecular structure info:
      -------------------------
 
                    ************************************************ 
                    **** Cartesian Coordinates / bohr, angstrom **** 
                    ************************************************ 
 
     Center  Label                x              y              z                     x              y              z
        1      C1              -0.030028       0.138957      -0.112552             -0.015890       0.073533      -0.059560
        2      C2               0.023484      -0.004666       2.486301              0.012427      -0.002469       1.315694
        3      H3               1.621151       0.277818      -1.342705              0.857876       0.147015      -0.710529
        4      H4              -1.769674      -0.022102      -1.184407             -0.936471      -0.011696      -0.626761
        5      H5               1.444805       1.253610       3.330780              0.764558       0.663382       1.762573
        6      H6               1.399860      -1.643616       2.510658              0.740774      -0.869764       1.328583
 
                    *************************************** 
                    *    InterNuclear Distances / bohr    * 
                    *************************************** 
 
               1 C1            2 C2            3 H3            4 H4            5 H5            6 H6    
    1 C1       0.000000
    2 C2       2.603369        0.000000
    3 H3       2.063722        4.158561        0.000000
    4 H4       2.049678        4.085317        3.407741        0.000000
    5 H5       3.908212        2.077633        4.777524        5.687463        0.000000
    6 H6       3.478991        2.140365        4.311529        5.131155        3.011402        0.000000
 
                    ******************************************* 
                    *    InterNuclear Distances / angstrom    * 
                    ******************************************* 
 
               1 C1            2 C2            3 H3            4 H4            5 H5            6 H6    
    1 C1       0.000000
    2 C2       1.377644        0.000000
    3 H3       1.092075        2.200616        0.000000
    4 H4       1.084643        2.161857        1.803299        0.000000
    5 H5       2.068137        1.099436        2.528157        3.009676        0.000000
    6 H6       1.841003        1.132632        2.281563        2.715290        1.593565        0.000000
 
                    ************************************** 
                    *    Valence Bond Angles / degree    * 
                    ************************************** 
                          Atom centers                 Phi
                      2 C2       1 C1       3 H3       125.61
                      2 C2       1 C1       4 H4       122.35
                      3 H3       1 C1       4 H4       111.88
                      1 C1       2 C2       5 H5       112.73
                      1 C1       2 C2       6 H6        93.83
                      5 H5       2 C2       6 H6        91.10
 
           ***************************************************************
           *              Valence Dihedral Angles / degree               *
           ***************************************************************
                    Atom centers                       Phi1     Phi2     Theta 
           3 H3       1 C1       2 C2       5 H5        125.61   112.73    40.42
           3 H3       1 C1       2 C2       6 H6        125.61    93.83   -52.38
           4 H4       1 C1       2 C2       5 H5        122.35   112.73  -144.46
           4 H4       1 C1       2 C2       6 H6        122.35    93.83   122.74
--
 
 
            Nuclear Potential Energy             32.96288669 au
 
--- Stop Module: gateway at Wed Jul  8 11:00:11 2026 /rc=_RC_ALL_IS_WELL_ ---
*** files: 07_MECI_CASPT2.RICDLib xmldump
    saved to directory /vscratch/grp-cyberwksp21/sbakenhaster/wed_7_8/openmolcas_pyspawn/Tutorials_OpenMolcas/07_MECI_CASPT2
--- Module gateway spent 1 second ---

--- Start Module: seward at Wed Jul  8 11:00:11 2026 ---
 
()()()()()()()()()()()()()()()()()()()()()()()()()()()()()()()()()()()()()()()()()()()()()()()()()()

                                              &SEWARD

                       only a single process is used, running in SERIAL mode
                       available to each process: 2.0 GB of memory, 1 thread?
                                            pid: 1834507
()()()()()()()()()()()()()()()()()()()()()()()()()()()()()()()()()()()()()()()()()()()()()()()()()()
 
               SEWARD will generate:
                  Multipole Moment integrals up to order  2
                  Kinetic Energy integrals
                  Nuclear Attraction integrals (point charge)
                  One-Electron Hamiltonian integrals
                  Velocity integrals
                  Orbital angular momentum around (  0.0941   0.0527   1.1353 )
                  Velocity quadrupole around (  0.0941   0.0527   1.1353 )
                  RI decomposed two-electron repulsion integrals stored Cholesky style
                   - acCD auxiliary basis
                   - CD Threshold:   1.00E-04
 
                   Integrals are discarded if absolute value <: 1.00E-14
                   Integral cutoff threshold is set to       <: 1.00E-16
 
            Nuclear Potential Energy             32.96288669 au
 
 
      Basis set specifications :
      Symmetry species         a  
      Basis functions           38
 
 
      Input file to MOLDEN was generated!
 
--- Stop Module: seward at Wed Jul  8 11:00:13 2026 /rc=_RC_ALL_IS_WELL_ ---
*** files: 07_MECI_CASPT2.GssOrb 07_MECI_CASPT2.guessorb.h5 07_MECI_CASPT2.guessorb.molden xmldump
    saved to directory /vscratch/grp-cyberwksp21/sbakenhaster/wed_7_8/openmolcas_pyspawn/Tutorials_OpenMolcas/07_MECI_CASPT2
--- Module seward spent 1 second ---

>>> IF (ITER == 1)

*** symbolic link created: INPORB -> 07_MECI_CASPT2.GssOrb
--- Start Module: scf at Wed Jul  8 11:00:13 2026 ---
 
()()()()()()()()()()()()()()()()()()()()()()()()()()()()()()()()()()()()()()()()()()()()()()()()()()

                                                &SCF

                       only a single process is used, running in SERIAL mode
                       available to each process: 2.0 GB of memory, 1 thread?
                                            pid: 1834512
()()()()()()()()()()()()()()()()()()()()()()()()()()()()()()()()()()()()()()()()()()()()()()()()()()
 
++    Input section:
      --------------
 
      Header of the integral files:
      
       Integrals generated by Gateway/Seward, Wed Jul  8 11:00:11 2026
 
 
      Cartesian coordinates in angstrom:
      -----------------------------------------------------
      No.  Label        X            Y            Z        
      -----------------------------------------------------
       1   C1        -0.01589000   0.07353300  -0.05956000
       2   C2         0.01242700  -0.00246900   1.31569400
       3   H3         0.85787600   0.14701500  -0.71052900
       4   H4        -0.93647100  -0.01169600  -0.62676100
       5   H5         0.76455800   0.66338200   1.76257300
       6   H6         0.74077400  -0.86976400   1.32858300
      -----------------------------------------------------
      Nuclear repulsion energy =   32.96288669
--
 
++    Orbital specifications:
      -----------------------
 
      Symmetry species               1
                                     a
      Frozen orbitals                0
      Occupied orbitals              8
      Secondary orbitals            30
      Deleted orbitals               0
      Total number of orbitals      38
      Number of basis functions     38
--
 
      Molecular charge                           0.000
 
++    Optimization specifications:
      ----------------------------
 
      SCF Algorithm: LK-RI/DF
      LK screening threshold:                     4.50E-02
      Local-Exchange (LK) algorithm.
       - the density matrix is decomposed
      The actual AO density is used
      Number of density matrices in core                 5
      Maximum number of NDDO SCF iterations            400
      Maximum number of HF SCF iterations              400
      Threshold for SCF energy change             1.00E-09
      Threshold for density matrix                1.00E-04
      Threshold for Fock matrix                   1.50E-04
      Threshold for linear dependence             1.00E-09
      Threshold at which DIIS is turned on        1.50E-01
      Maximum depth in the DIIS procedure                5
      Maximum depth in the BFGS Hessian update          30
      Threshold at which QNR/C2DIIS is turned on  7.50E-02
      Threshold for Norm(delta) (QNR/C2DIIS)      1.00E-03
      All orbitals punched on: SCFORB
--
 
      Input vectors read from INPORB
      Orbital file label: *Guess orbitals
 
 
++ Convergence information
                                   SCF        iterations: Energy and convergence statistics
 
Iter     Tot. SCF        One-elec.       Two-elec.     Energy      Max Dij or  Max Fij      DNorm      TNorm      AccCon     Time
         Energy          Energy          Energy        Change      Delta Norm                                                in Sec.
   1   -77.595410596  -167.294353849    56.736056565   0.00E+00    1.90E-01*   1.28E-01*    4.18E+00   8.07E+01   None         0.
   2   -77.809179734  -169.438924627    58.666858206  -2.14E-01*   2.29E-01*   7.68E-02*    4.37E+00   8.20E+01   EDIIS        0.
   3   -77.838482392  -168.682289573    57.880920494  -2.93E-02*   5.20E-02*   2.74E-02*    4.34E+00   8.14E+01   EDIIS        0.
   4   -77.845467250  -168.992986978    58.184633041  -6.98E-03*   3.56E-02*   1.39E-02*    4.40E+00   8.16E+01   c2DIIS       0.
   5   -77.847746698  -168.903398338    58.092764953  -2.28E-03*   8.90E-03*   3.05E-03*    4.39E+00   8.15E+01   QNRc2DIIS    0.
   6   -77.847935867  -168.902365904    58.091543350  -1.89E-04*   1.15E-02*   2.67E-03*    4.40E+00   8.15E+01   QNRc2DIIS    0.
   7   -77.848008667  -168.901398129    58.090502775  -7.28E-05*   1.45E-03*   3.85E-04*    4.41E+00   8.15E+01   QNRc2DIIS    0.
   8   -77.848012556  -168.901188900    58.090289656  -3.89E-06*   4.00E-03*   3.64E-04*    4.41E+00   8.15E+01   QNRc2DIIS    0.
   9   -77.848017549  -168.901418737    58.090514501  -4.99E-06*   4.05E-03*   2.85E-04*    4.41E+00   8.15E+01   QNRc2DIIS    0.
  10   -77.848020373  -168.901341203    58.090434143  -2.82E-06*   9.02E-03*   2.01E-04*    4.41E+00   8.15E+01   QNRc2DIIS    0.
  11   -77.848025781  -168.902188124    58.091275655  -5.41E-06*   3.60E-04    7.76E-05     4.41E+00   8.15E+01   QNRc2DIIS    0.
  12   -77.848025877  -168.901050017    58.090137452  -9.57E-08*   2.37E-04    4.29E-05     4.41E+00   8.15E+01   QNRc2DIIS    0.
  13   -77.848025908  -168.901335067    58.090422472  -3.03E-08*   5.42E-05    7.53E-06     4.41E+00   8.15E+01   QNRc2DIIS    0.
  14   -77.848025909  -168.901356983    58.090444387  -1.54E-09*   1.62E-05    2.71E-06     4.41E+00   8.15E+01   QNRc2DIIS    0.
  15   -77.848025909  -168.901370854    58.090458258  -2.61E-10    3.77E-06    6.35E-07     4.41E+00   8.15E+01   QNRc2DIIS    0.
 
       Convergence after  15 Iterations
--
 
 *****************************************************************************************************************************
 *                                                                                                                           *
 *                                             SCF/KS-DFT Program, Final results                                             *
 *                                                                                                                           *
 *                                                                                                                           *
 *                                                                                                                           *
 *                                                       Final Results                                                       *
 *                                                                                                                           *
 *****************************************************************************************************************************
 
::    Total SCF energy                                -77.8480259093
      One-electron energy                            -168.9013708542
      Two-electron energy                              58.0904582577
      Nuclear repulsion energy                         32.9628866872
      Kinetic energy (interpolated)                    77.9417681724
      Virial theorem                                    0.9987972782
      Total spin, S(S+1)                                0.0000000000
      Total spin, S                                     0.0000000000
      Max non-diagonal density matrix element           0.0000049987
      Max non-diagonal Fock matrix element              0.0000007029
 
 
      All orbitals with orbital energies smaller than  E(LUMO)+0.5 are printed
 
++    Molecular orbitals:
      -------------------
 
      Title: SCF orbitals

      Molecular orbitals for symmetry species 1: a  
 
          Orbital            1         2         3         4         5         6         7         8         9        10    
          Energy          -11.3503  -11.1447   -1.0586   -0.8228   -0.6567   -0.5560   -0.4954   -0.2757    0.0422    0.2361
          Occ. No.          2.0000    2.0000    2.0000    2.0000    2.0000    2.0000    2.0000    2.0000    0.0000    0.0000
 
        1 C1     1s         0.9958   -0.0034   -0.1726    0.0936    0.0071    0.0470   -0.0153   -0.0196    0.0079    0.1104
        2 C1     2s         0.0265    0.0000    0.3505   -0.1969   -0.0211   -0.1089    0.0454    0.0567   -0.0145   -0.1514
        3 C1     *s        -0.0112    0.0050    0.2722   -0.2212   -0.0338   -0.1780    0.0321   -0.0317   -0.0666   -1.7256
        4 C1     2px       -0.0000   -0.0001    0.0123    0.0526    0.4362   -0.1451    0.0048   -0.0578   -0.0433   -0.0713
        5 C1     *px        0.0002    0.0013    0.0147    0.0148    0.1937   -0.0922   -0.0054    0.0557   -0.0715   -0.0884
        6 C1     2py       -0.0002   -0.0000   -0.0074   -0.0043    0.0398   -0.0050    0.2039   -0.0139    0.4481   -0.0119
        7 C1     *py        0.0002    0.0002   -0.0034   -0.0017    0.0170   -0.0008    0.1571   -0.0067    0.6692   -0.0287
        8 C1     2pz       -0.0005   -0.0005    0.0789    0.2911   -0.1389   -0.3565    0.0789    0.0792   -0.0169    0.2067
        9 C1     *pz       -0.0000    0.0020   -0.0049    0.1124   -0.0582   -0.1996    0.0423   -0.0135   -0.0265    0.8470
       10 C1     *200      -0.0010   -0.0001    0.0036   -0.0151    0.0027    0.0096   -0.0008    0.0010    0.0009    0.0057
       11 C1     *110       0.0001    0.0000    0.0010   -0.0050   -0.0015    0.0025    0.0064   -0.0020   -0.0031   -0.0002
       12 C1     *101       0.0000   -0.0001    0.0017    0.0015   -0.0335    0.0175   -0.0058    0.0409    0.0039   -0.0033
       13 C1     *020      -0.0015   -0.0001   -0.0090    0.0060   -0.0002    0.0010   -0.0026    0.0009    0.0004    0.0037
       14 C1     *011       0.0000    0.0001   -0.0021   -0.0026   -0.0029    0.0049    0.0203    0.0033   -0.0127    0.0025
       15 C1     *002      -0.0008   -0.0005    0.0106    0.0016   -0.0001   -0.0025    0.0025   -0.0040   -0.0005   -0.0023
       16 C2     1s         0.0029    0.9958   -0.1278   -0.1251    0.0238   -0.0303   -0.0118    0.0871    0.0042    0.0328
       17 C2     2s        -0.0000    0.0280    0.2260    0.2192   -0.0516    0.0411    0.0229   -0.1820   -0.0114   -0.0061
       18 C2     *s         0.0022   -0.0150    0.1889    0.2439   -0.0318    0.2028    0.0399   -0.3129    0.0102   -0.8363
       19 C2     2px        0.0001    0.0024    0.0472    0.1012    0.1299    0.1469   -0.0360    0.4080    0.0224   -0.0566
       20 C2     *px       -0.0005   -0.0039    0.0240    0.0449    0.0364    0.0818   -0.0110    0.4079    0.0287   -0.2884
       21 C2     2py       -0.0000    0.0001   -0.0018   -0.0050    0.0087    0.0349    0.3664    0.0634   -0.1067    0.0395
       22 C2     *py        0.0002   -0.0001   -0.0011   -0.0041    0.0018    0.0166    0.1666    0.0594   -0.1056    0.1092
       23 C2     2pz        0.0002   -0.0019   -0.1198    0.0079    0.0653    0.3343   -0.0011   -0.2088    0.0076   -0.0809
       24 C2     *pz       -0.0015    0.0024   -0.0206   -0.0018   -0.0076    0.0786    0.0032   -0.2477   -0.0018   -0.1185
       25 C2     *200      -0.0001   -0.0010   -0.0007    0.0058    0.0065    0.0152   -0.0024    0.0124    0.0019    0.0038
       26 C2     *110       0.0000    0.0001   -0.0024   -0.0013    0.0012    0.0076    0.0404    0.0034   -0.0223    0.0030
       27 C2     *101      -0.0000   -0.0000   -0.0014    0.0033   -0.0095    0.0198    0.0085   -0.0201   -0.0022   -0.0017
       28 C2     *020      -0.0000   -0.0012   -0.0008    0.0027    0.0010    0.0076   -0.0047   -0.0066    0.0040    0.0003
       29 C2     *011      -0.0000    0.0000    0.0023    0.0054    0.0011    0.0078   -0.0167   -0.0004   -0.0208   -0.0031
       30 C2     *002      -0.0001   -0.0007    0.0078   -0.0027   -0.0052   -0.0191    0.0041    0.0030   -0.0050    0.0024
       31 H3     1s        -0.0002   -0.0002    0.1024   -0.1453    0.2510   -0.0012    0.0053   -0.1204   -0.0094    0.0233
       32 H3     *s         0.0021   -0.0005    0.0102   -0.0610    0.1775    0.0057    0.0115   -0.2496   -0.0018    1.5781
       33 H4     1s        -0.0002   -0.0000    0.0990   -0.1745   -0.1864    0.1539   -0.0235    0.0992    0.0074    0.0261
       34 H4     *s         0.0024    0.0005    0.0198   -0.0700   -0.1181    0.1212   -0.0193    0.1867    0.0299    1.1670
       35 H5     1s        -0.0000    0.0001    0.0679    0.1240    0.0462    0.2055    0.1599    0.0738   -0.1195   -0.0042
       36 H5     *s         0.0003    0.0034    0.0079    0.0490    0.0395    0.1769    0.1737    0.0752   -0.2730    0.4047
       37 H6     1s         0.0001    0.0001    0.0858    0.1187    0.0329    0.0854   -0.2458    0.0527    0.1562   -0.0002
       38 H6     *s         0.0006    0.0031    0.0156    0.0477    0.0271    0.0794   -0.2795    0.0344    0.3958    0.5223
 
          Orbital           11        12        13        14    
          Energy            0.2719    0.3123    0.3438    0.4783
          Occ. No.          0.0000    0.0000    0.0000    0.0000
 
        1 C1     1s         0.0555   -0.0194    0.0186   -0.0700
        2 C1     2s        -0.0227   -0.0539   -0.0217    0.0912
        3 C1     *s        -1.2815    0.7821   -0.3526    2.2883
        4 C1     2px        0.2406    0.3046   -0.0899   -0.0359
        5 C1     *px        0.6875    1.3584   -0.5028   -0.2083
        6 C1     2py        0.0128    0.0247   -0.0073    0.0111
        7 C1     *py        0.0897   -0.0330   -0.4195   -0.1739
        8 C1     2pz        0.0612   -0.0472   -0.0297    0.0923
        9 C1     *pz       -0.1316    0.3603   -0.4030    2.7113
       10 C1     *200       0.0036   -0.0012   -0.0027    0.0248
       11 C1     *110       0.0026   -0.0069   -0.0157    0.0022
       12 C1     *101       0.0082   -0.0028    0.0056    0.0171
       13 C1     *020      -0.0013   -0.0001   -0.0005   -0.0023
       14 C1     *011      -0.0030    0.0113    0.0271    0.0035
       15 C1     *002       0.0081   -0.0087    0.0041   -0.0094
       16 C2     1s        -0.1046    0.0652   -0.0494    0.0678
       17 C2     2s         0.0386    0.0007    0.0149    0.0239
       18 C2     *s         1.9796   -1.6028    1.1273   -2.6598
       19 C2     2px        0.1252   -0.1234    0.0564    0.1247
       20 C2     *px        0.5330   -0.9441    0.4614    0.4743
       21 C2     2py       -0.0492    0.1285    0.3159    0.0188
       22 C2     *py       -0.1927    0.4348    1.2605   -0.0211
       23 C2     2pz        0.0335    0.0448    0.0358    0.2243
       24 C2     *pz       -0.0890    0.3096    0.0393    2.3665
       25 C2     *200      -0.0017   -0.0024    0.0003    0.0097
       26 C2     *110      -0.0034    0.0057    0.0080    0.0037
       27 C2     *101      -0.0084   -0.0115    0.0031    0.0051
       28 C2     *020      -0.0083    0.0065   -0.0009   -0.0045
       29 C2     *011       0.0038   -0.0096   -0.0121   -0.0040
       30 C2     *002      -0.0056    0.0017   -0.0048   -0.0083
       31 H3     1s         0.0175   -0.0267   -0.0189    0.0530
       32 H3     *s        -0.3092   -1.4926    0.3951    0.8423
       33 H4     1s         0.0441   -0.0102    0.0075    0.1283
       34 H4     *s         1.4312    1.2950   -0.5275    0.2924
       35 H5     1s        -0.0189   -0.0453   -0.0118   -0.0150
       36 H5     *s        -0.9815    0.3728   -1.8460   -0.7203
       37 H6     1s        -0.0147   -0.0034    0.0503   -0.0641
       38 H6     *s        -1.1954    1.2168    0.9006   -0.1459
--
 
 
++    Molecular charges:
      ------------------
 
      Mulliken charges per centre and basis function type
      ---------------------------------------------------
 
                C1      C2      H3      H4      H5      H6    
      1s       1.9970  1.9969  0.5352  0.5348  0.4894  0.4672
      2s       0.7446  0.6450  0.0000  0.0000  0.0000  0.0000
      2px      0.7554  0.7692  0.0000  0.0000  0.0000  0.0000
      2pz      0.8524  0.6660  0.0000  0.0000  0.0000  0.0000
      2py      0.1739  0.5384  0.0000  0.0000  0.0000  0.0000
      *s       0.6183  0.7874  0.2856  0.2529  0.3372  0.3632
      *px      0.3692  0.6454  0.0000  0.0000  0.0000  0.0000
      *pz      0.2987  0.2629  0.0000  0.0000  0.0000  0.0000
      *py      0.1906  0.2985  0.0000  0.0000  0.0000  0.0000
      *200     0.0245  0.0050  0.0000  0.0000  0.0000  0.0000
      *110     0.0006  0.0148  0.0000  0.0000  0.0000  0.0000
      *101     0.0361  0.0064  0.0000  0.0000  0.0000  0.0000
      *020    -0.0228  0.0120  0.0000  0.0000  0.0000  0.0000
      *011     0.0063  0.0030  0.0000  0.0000  0.0000  0.0000
      *002     0.0248  0.0141  0.0000  0.0000  0.0000  0.0000
      Total    6.0695  6.6650  0.8208  0.7877  0.8265  0.8304
 
      N-E     -0.0695 -0.6650  0.1792  0.2123  0.1735  0.1696
 
      Total electronic charge=   16.000000
 
      Total            charge=   -0.000000
--
 
 
++    Molecular properties:
      ---------------------
 
      Charge (e):
                      =   -0.0000
      Dipole Moment (debye):
      Origin of the operator (angstrom)=    0.0498    0.0279    0.6008
                   X=  1.7319E+00               Y=  1.6626E-01               Z= -3.7544E+00           Total=  4.1379E+00
      Quadrupole Moment (debye*angstrom):
      Origin of the operator (angstrom)=    0.0498    0.0279    0.6008
                  XX= -1.4308E+01              XY= -4.5637E-01              XZ=  2.8835E+00              YY= -1.3308E+01
                  YZ=  2.4880E-01              ZZ= -1.4959E+01
      In traceless form (debye*angstrom)
                  XX= -1.7444E-01              XY= -6.8455E-01              XZ=  4.3252E+00              YY=  1.3254E+00
                  YZ=  3.7319E-01              ZZ= -1.1510E+00
--
 
 
      Input file to MOLDEN was generated!
 
 ###############################################################################
 ###############################################################################
 ###                                                                         ###
 ###                                                                         ###
 ###    WARNING: RunFile label nBas                                          ###
 ###    was used       74 times                                              ###
 ###                                                                         ###
 ###                                                                         ###
 ###############################################################################
 ###############################################################################
--- Stop Module: scf at Wed Jul  8 11:00:14 2026 /rc=_RC_ALL_IS_WELL_ ---
*** files: 07_MECI_CASPT2.scf.molden 07_MECI_CASPT2.ScfOrb 07_MECI_CASPT2.scf.h5 xmldump
    saved to directory /vscratch/grp-cyberwksp21/sbakenhaster/wed_7_8/openmolcas_pyspawn/Tutorials_OpenMolcas/07_MECI_CASPT2
--- Module scf spent 1 second ---

*** symbolic link created: INPORB -> 07_MECI_CASPT2.ScfOrb
--- Start Module: rasscf at Wed Jul  8 11:00:14 2026 ---
 
()()()()()()()()()()()()()()()()()()()()()()()()()()()()()()()()()()()()()()()()()()()()()()()()()()

                                              &RASSCF

                       only a single process is used, running in SERIAL mode
                       available to each process: 2.0 GB of memory, 1 thread?
                                            pid: 1834517
()()()()()()()()()()()()()()()()()()()()()()()()()()()()()()()()()()()()()()()()()()()()()()()()()()
 
 
      Header of the ONEINT file:
      --------------------------
      
      Integrals generated by Gateway/Seward, Wed Jul  8 11:00:11 2026
 
 
      OrdInt status: non-squared
 
 
      Cartesian coordinates in angstrom:
      -----------------------------------------------------
      No.  Label        X            Y            Z        
      -----------------------------------------------------
       1   C1        -0.01589000   0.07353300  -0.05956000
       2   C2         0.01242700  -0.00246900   1.31569400
       3   H3         0.85787600   0.14701500  -0.71052900
       4   H4        -0.93647100  -0.01169600  -0.62676100
       5   H5         0.76455800   0.66338200   1.76257300
       6   H6         0.74077400  -0.86976400   1.32858300
      -----------------------------------------------------
      Nuclear repulsion energy =   32.96288669
 
++    Wave function specifications:
      -----------------------------
 
      Number of closed shell electrons          14
      Number of electrons in active shells       2
      Max number of holes in RAS1 space          0
      Max nr of electrons in RAS3 space          0
      Number of inactive orbitals                7
      Number of active orbitals                  2
      Number of secondary orbitals              29
      Spin quantum number                      0.0
      State symmetry                             1
--
 
++    Orbital specifications:
      -----------------------
 
      Symmetry species                           1
                                                 a
      Frozen orbitals                            0
      Inactive orbitals                          7
      Active orbitals                            2
      RAS1 orbitals                              0
      RAS2 orbitals                              2
      RAS3 orbitals                              0
      Secondary orbitals                        29
      Deleted orbitals                           0
      Number of basis functions                 38
--
 
++    CI expansion specifications:
      ----------------------------
 
      Number of CSFs                             3
      Number of spin combinations                3
      Number of determinants                     4
      Number of root(s) required                 3
      Root chosen for geometry opt.              3
      CI roots used                              1     2     3
      weights                                0.333 0.333 0.333
      highest root included in the CI            3
      max. size of the explicit Hamiltonian      3
--
 
++    Optimization specifications:
      ----------------------------
 
      RASSCF algorithm: LK RI/DF
      Maximum number of macro iterations       200
      Maximum number of SX iterations          100
      Threshold for RASSCF energy            1.000E-08
      Threshold for max MO rotation          1.000E-01
      Threshold for max BLB element          1.000E-04
      Level shift parameter                  5.000E-01
      Make Quasi-Newton update
--
 
      Orbitals from runfile: scf orbitals
      The MO-coefficients are taken from scf orbitals on runfile
 
      Total molecular charge    0.00
 
      ************************************************************************************************************************
      *                                                                                                                      *
      *                                            Wave function control section                                             *
      *                                                                                                                      *
      ************************************************************************************************************************
 
 
                                         RASSCF iterations: Energy and convergence statistics
                                         ----------------------------------------------------
 
      Iter CI   SX   CI       RASSCF       Energy    max ROT     max BLB   max BLB  Level Ln srch  Step   QN   Walltime
          iter iter root      energy       change     param      element    value   shift minimum  type update hh:mm:ss
 Nr of preliminary CI iterations:   1
        1   1    8    0   -77.71450646    0.00E+00  -9.51E-02    6  14 1 -1.13E-01*  0.12   0.00    SX    NO    0:00:00
        2   1    6    0   -77.76247157   -4.80E-02* -4.09E-02    6  24 1  2.99E-02*  0.13   0.00    SX    NO    0:00:00
        3   1    6    0   -77.76850036   -6.03E-03*  2.27E-02    6  24 1 -1.43E-02*  0.12   0.00    SX    NO    0:00:00
        4   1    6    0   -77.76950637   -1.01E-03* -8.98E-03    6  24 1  5.37E-03*  0.13   0.00    SX    NO    0:00:00
        5   1    6    0   -77.76973154   -2.25E-04* -6.13E-03    5   8 1 -3.82E-03*  0.13   0.90    QN   YES    0:00:00
        6   1    5    0   -77.76979992   -6.84E-05* -4.90E-03    5   8 1 -1.77E-03*  0.13   1.81    LS   YES    0:00:00
        7   1    5    0   -77.76981712   -1.72E-05*  1.27E-03    6  14 1  9.24E-04*  0.13   1.01    QN   YES    0:00:00
        8   1    5    0   -77.76982256   -5.44E-06*  6.13E-04    6  14 1  3.53E-04*  0.13   1.48    LS   YES    0:00:00
        9   1    5    0   -77.76982320   -6.48E-07* -4.02E-04    7  16 1 -2.45E-04*  0.13   1.00    QN   YES    0:00:00
       10   1    4    0   -77.76982376   -5.56E-07* -1.85E-04    6   8 1 -9.64E-05   0.13   1.46    LS   YES    0:00:00
       11   1    4    0   -77.76982382   -6.14E-08*  1.41E-04    7  13 1 -6.36E-05   0.13   1.00    QN   YES    0:00:00
       12   1    4    0   -77.76982387   -5.14E-08*  2.23E-04    6   8 1 -4.51E-05   0.13   1.68    QN   YES    0:00:00
       13   1    4    0   -77.76982390   -2.93E-08*  6.96E-05    6  15 1  1.90E-05   0.13   1.19    QN   YES    0:00:00
       14   1    3    0   -77.76982390   -3.35E-09   3.00E-05    6  15 1  7.00E-06   0.13   1.48    QN   YES    0:00:00
      Convergence after 14 iterations
       15   1    3    0   -77.76982391   -8.10E-10   3.00E-05    6  13 1  2.02E-06   0.13   1.48    QN   YES    0:00:00
 
      ************************************************************************************************************************
                                                      Wave function printout:
                       occupation of active orbitals, and spin coupling of open shells (u,d: Spin up or down)
      ************************************************************************************************************************
 
      Note: transformation to natural orbitals
      has been made, which may change the order of the CSFs.
 
      printout of CI-coefficients larger than  0.05 for root  1
      energy=     -77.855626
      conf/sym  11     Coeff  Weight
             1  20  -0.10259 0.01052
             2  ud   0.99014 0.98037
             3  02   0.09540 0.00910
 
      printout of CI-coefficients larger than  0.05 for root  2
      energy=     -77.814790
      conf/sym  11     Coeff  Weight
             1  20   0.99411 0.98825
             2  ud   0.10543 0.01112
 
      printout of CI-coefficients larger than  0.05 for root  3
      energy=     -77.639056
      conf/sym  11     Coeff  Weight
             2  ud  -0.09225 0.00851
             3  02   0.99512 0.99026
 
      Natural orbitals and occupation numbers for root  1
      sym 1:   1.010159   0.989841
 
      Natural orbitals and occupation numbers for root  2
      sym 1:   1.998117   0.001883
 
      Natural orbitals and occupation numbers for root  3
      sym 1:   0.001880   1.998120
 
      ************************************************************************************************************************
      *                                                                                                                      *
      *                                                    Final results                                                     *
      *                                                                                                                      *
      ************************************************************************************************************************
 
 
++    Final optimization conditions:
      ------------------------------
 
      Average CI energy                             -77.76982391
      RASSCF energy for state  3                    -77.63905555
      Super-CI energy                                -0.00000000
      RASSCF energy change                           -0.00000000
      Max change in MO coefficients               2.951E-05
      Max non-diagonal density matrix element     2.996E-05
      Maximum BLB matrix element                  2.020E-06
      (orbital pair   6,  13 in symmetry   1)
      Norm of electronic gradient            3.489E-01
--
 
 
      Final state energy(ies):
      ------------------------
 
::    RASSCF root number  1 Total energy:    -77.85562600
::    RASSCF root number  2 Total energy:    -77.81479017
::    RASSCF root number  3 Total energy:    -77.63905555
 
++    Molecular orbitals:
      -------------------
 
      Pseudonatural active orbitals and approximate occupation numbers
 
 
 
 
      Molecular orbitals for symmetry species 1: a  
 
 
      Orbital                 1         2         3         4         5         6         7         8         9
      Energy           -11.2629  -11.2347   -1.0413   -0.7955   -0.6010   -0.5569   -0.5300   -0.1649   -0.0779
      Occ. No.           2.0000    2.0000    2.0000    2.0000    2.0000    2.0000    2.0000    1.0000    1.0000
 
     1 C1     1s         0.0215    0.9954   -0.1470    0.1292    0.0040    0.0097   -0.0227   -0.0230    0.0047
     2 C1     2s         0.0004    0.0273    0.2771   -0.2485   -0.0106   -0.0180    0.0514    0.0606   -0.0036
     3 C1     *s         0.0046   -0.0107    0.2145   -0.2936   -0.0164   -0.0214    0.0581   -0.0210   -0.0680
     4 C1     2px        0.0000    0.0000    0.0197    0.0413    0.2794   -0.2671    0.1605   -0.1144   -0.0527
     5 C1     *px        0.0009    0.0002    0.0074   -0.0041    0.1352   -0.1599    0.1010    0.0214   -0.0720
     6 C1     2py       -0.0000   -0.0002   -0.0095   -0.0022    0.0416    0.0957    0.1756   -0.0476    0.4784
     7 C1     *py        0.0001    0.0002   -0.0033   -0.0016    0.0187    0.0686    0.1236   -0.0481    0.6252
     8 C1     2pz       -0.0002    0.0002    0.1001    0.1759   -0.2691   -0.1752    0.2174    0.1111   -0.0098
     9 C1     *pz        0.0023   -0.0003    0.0072    0.0579   -0.1117   -0.0828    0.1075   -0.0000   -0.0214
    10 C1     *200      -0.0001   -0.0012    0.0025   -0.0131    0.0095    0.0064   -0.0063    0.0002    0.0012
    11 C1     *110       0.0000    0.0001    0.0008   -0.0040    0.0001    0.0051    0.0017   -0.0016   -0.0012
    12 C1     *101       0.0000    0.0001    0.0001    0.0010   -0.0125    0.0162   -0.0150    0.0456    0.0058
    13 C1     *020      -0.0001   -0.0014   -0.0075    0.0062   -0.0000   -0.0004   -0.0025   -0.0001   -0.0000
    14 C1     *011       0.0001   -0.0000   -0.0024   -0.0011    0.0018    0.0126    0.0109    0.0033    0.0025
    15 C1     *002      -0.0002   -0.0009    0.0110   -0.0001   -0.0040   -0.0017    0.0044   -0.0031    0.0000
    16 C2     1s         0.9956   -0.0220   -0.1570   -0.1074    0.0339   -0.0239   -0.0010    0.0693    0.0042
    17 C2     2s         0.0273   -0.0006    0.2994    0.2035   -0.0817    0.0435    0.0129   -0.1461   -0.0248
    18 C2     *s        -0.0144    0.0023    0.2592    0.2602   -0.0478    0.1118   -0.0455   -0.2761    0.0645
    19 C2     2px        0.0008    0.0001    0.0443    0.1159    0.2250   -0.0035   -0.0682    0.3883    0.0602
    20 C2     *px       -0.0029   -0.0004    0.0203    0.0522    0.1205   -0.0033   -0.0368    0.4144    0.0823
    21 C2     2py       -0.0001   -0.0000   -0.0043   -0.0025    0.0524    0.2423    0.3294    0.0698   -0.1438
    22 C2     *py       -0.0000    0.0003   -0.0038   -0.0031    0.0259    0.1080    0.1570    0.0671   -0.0892
    23 C2     2pz       -0.0004    0.0003   -0.1100    0.1145    0.2172    0.2466   -0.1841   -0.2101    0.0021
    24 C2     *pz        0.0021   -0.0014   -0.0108    0.0377    0.0501    0.1068   -0.0748   -0.2419   -0.0114
    25 C2     *200      -0.0011   -0.0000   -0.0005    0.0063    0.0093    0.0047   -0.0060    0.0087    0.0021
    26 C2     *110       0.0000    0.0000   -0.0027   -0.0001    0.0065    0.0242    0.0269    0.0036   -0.0292
    27 C2     *101       0.0002   -0.0000    0.0039    0.0081   -0.0031    0.0220   -0.0056   -0.0147   -0.0033
    28 C2     *020      -0.0010    0.0000   -0.0001    0.0054    0.0040    0.0018   -0.0082   -0.0056    0.0058
    29 C2     *011       0.0000    0.0000    0.0032    0.0066    0.0041    0.0016   -0.0102    0.0030   -0.0425
    30 C2     *002      -0.0009   -0.0002    0.0064   -0.0066   -0.0094   -0.0062    0.0110    0.0040   -0.0080
    31 H3     1s        -0.0001   -0.0002    0.0829   -0.1409    0.2277   -0.0786    0.0383   -0.1586   -0.0168
    32 H3     *s        -0.0002    0.0020    0.0199   -0.0528    0.1601   -0.0476    0.0245   -0.2627   -0.0156
    33 H4     1s        -0.0001   -0.0001    0.0680   -0.1689   -0.0567    0.1881   -0.1486    0.1206    0.0172
    34 H4     *s         0.0005    0.0022    0.0105   -0.0825   -0.0255    0.1359   -0.1103    0.1879    0.0331
    35 H5     1s         0.0002   -0.0000    0.0887    0.1443    0.1331    0.1950    0.0556    0.0850   -0.1311
    36 H5     *s         0.0029    0.0003    0.0089    0.0587    0.1051    0.1696    0.0559    0.0836   -0.2627
    37 H6     1s         0.0002    0.0000    0.1022    0.1147    0.0409   -0.1019   -0.2174    0.0468    0.1642
    38 H6     *s         0.0028    0.0006    0.0157    0.0465    0.0355   -0.0867   -0.2098    0.0154    0.2960
--
 
      Von Neumann Entropy (Root   1) =  0.99993
 

      Mulliken population analysis for root number:  1
      -----------------------------------------------
 
 
++    Molecular charges:
      ------------------
 
      Mulliken charges per centre and basis function type
      ---------------------------------------------------
 
                C1      C2      H3      H4      H5      H6    
      1s       1.9965  1.9969  0.4961  0.5098  0.4981  0.4825
      2s       0.6583  0.6747  0.0000  0.0000  0.0000  0.0000
      2px      0.6801  0.5306  0.0000  0.0000  0.0000  0.0000
      2pz      0.7290  0.6848  0.0000  0.0000  0.0000  0.0000
      2py      0.5360  0.6501  0.0000  0.0000  0.0000  0.0000
      *s       0.6113  0.7190  0.2835  0.2845  0.2941  0.3159
      *px      0.3945  0.4333  0.0000  0.0000  0.0000  0.0000
      *pz      0.2347  0.2527  0.0000  0.0000  0.0000  0.0000
      *py      0.5899  0.3399  0.0000  0.0000  0.0000  0.0000
      *200     0.0273  0.0049  0.0000  0.0000  0.0000  0.0000
      *110     0.0005  0.0166  0.0000  0.0000  0.0000  0.0000
      *101     0.0206  0.0068  0.0000  0.0000  0.0000  0.0000
      *020    -0.0207  0.0096  0.0000  0.0000  0.0000  0.0000
      *011     0.0048  0.0126  0.0000  0.0000  0.0000  0.0000
      *002     0.0259  0.0144  0.0000  0.0000  0.0000  0.0000
      Total    6.4887  6.3468  0.7796  0.7943  0.7922  0.7983
 
      N-E     -0.4887 -0.3468  0.2204  0.2057  0.2078  0.2017
 
      Total electronic charge=   16.000000
 
      Total            charge=   -0.000000
--
 
 

      Expectation values of various properties for root number:  1
      -----------------------------------------------------------
 
 
++    Molecular properties:
      ---------------------
 
      Charge (e):
                      =   -0.0000
      Dipole Moment (debye):
      Origin of the operator (angstrom)=    0.0498    0.0279    0.6008
                   X=  1.1401E+00               Y= -1.3071E-01               Z= -4.1993E-01           Total=  1.2220E+00
      Quadrupole Moment (debye*angstrom):
      Origin of the operator (angstrom)=    0.0498    0.0279    0.6008
                  XX= -1.2941E+01              XY=  4.5708E-02              XZ=  8.4497E-01              YY= -1.5162E+01
                  YZ=  2.6845E-01              ZZ= -1.3764E+01
      In traceless form (debye*angstrom)
                  XX=  1.5214E+00              XY=  6.8562E-02              XZ=  1.2674E+00              YY= -1.8098E+00
                  YZ=  4.0267E-01              ZZ=  2.8837E-01
--
 
      Von Neumann Entropy (Root   2) =  0.01082
 

      Mulliken population analysis for root number:  2
      -----------------------------------------------
 
 
++    Molecular charges:
      ------------------
 
      Mulliken charges per centre and basis function type
      ---------------------------------------------------
 
                C1      C2      H3      H4      H5      H6    
      1s       1.9965  1.9972  0.5445  0.5366  0.4784  0.4431
      2s       0.6624  0.7099  0.0000  0.0000  0.0000  0.0000
      2px      0.6940  0.7865  0.0000  0.0000  0.0000  0.0000
      2pz      0.7458  0.7603  0.0000  0.0000  0.0000  0.0000
      2py      0.1678  0.6285  0.0000  0.0000  0.0000  0.0000
      *s       0.6125  0.7819  0.3278  0.3036  0.2688  0.2770
      *px      0.3905  0.6918  0.0000  0.0000  0.0000  0.0000
      *pz      0.2349  0.3324  0.0000  0.0000  0.0000  0.0000
      *py      0.1686  0.3405  0.0000  0.0000  0.0000  0.0000
      *200     0.0273  0.0022  0.0000  0.0000  0.0000  0.0000
      *110     0.0005  0.0123  0.0000  0.0000  0.0000  0.0000
      *101     0.0340  0.0064  0.0000  0.0000  0.0000  0.0000
      *020    -0.0207  0.0108  0.0000  0.0000  0.0000  0.0000
      *011     0.0050  0.0020  0.0000  0.0000  0.0000  0.0000
      *002     0.0257  0.0128  0.0000  0.0000  0.0000  0.0000
      Total    5.7449  7.0754  0.8723  0.8401  0.7472  0.7201
 
      N-E      0.2551 -1.0754  0.1277  0.1599  0.2528  0.2799
 
      Total electronic charge=   16.000000
 
      Total            charge=   -0.000000
--
 
 

      Expectation values of various properties for root number:  2
      -----------------------------------------------------------
 
 
++    Molecular properties:
      ---------------------
 
      Charge (e):
                      =   -0.0000
      Dipole Moment (debye):
      Origin of the operator (angstrom)=    0.0498    0.0279    0.6008
                   X=  2.3236E+00               Y=  5.3790E-02               Z= -4.5311E+00           Total=  5.0925E+00
      Quadrupole Moment (debye*angstrom):
      Origin of the operator (angstrom)=    0.0498    0.0279    0.6008
                  XX= -1.4452E+01              XY= -6.0058E-01              XZ=  3.4052E+00              YY= -1.2773E+01
                  YZ=  2.6134E-01              ZZ= -1.5313E+01
      In traceless form (debye*angstrom)
                  XX= -4.0870E-01              XY= -9.0087E-01              XZ=  5.1078E+00              YY=  2.1093E+00
                  YZ=  3.9201E-01              ZZ= -1.7006E+00
--
 
      Von Neumann Entropy (Root   3) =  0.01080
 

      Mulliken population analysis for root number:  3
      -----------------------------------------------
 
 
++    Molecular charges:
      ------------------
 
      Mulliken charges per centre and basis function type
      ---------------------------------------------------
 
                C1      C2      H3      H4      H5      H6    
      1s       1.9965  1.9967  0.4478  0.4832  0.5166  0.5231
      2s       0.6541  0.6396  0.0000  0.0000  0.0000  0.0000
      2px      0.6667  0.2760  0.0000  0.0000  0.0000  0.0000
      2pz      0.7120  0.6089  0.0000  0.0000  0.0000  0.0000
      2py      0.9037  0.6710  0.0000  0.0000  0.0000  0.0000
      *s       0.6101  0.6553  0.2391  0.2656  0.3187  0.3552
      *px      0.3985  0.1763  0.0000  0.0000  0.0000  0.0000
      *pz      0.2344  0.1728  0.0000  0.0000  0.0000  0.0000
      *py      1.0112  0.3389  0.0000  0.0000  0.0000  0.0000
      *200     0.0273  0.0075  0.0000  0.0000  0.0000  0.0000
      *110     0.0005  0.0209  0.0000  0.0000  0.0000  0.0000
      *101     0.0071  0.0072  0.0000  0.0000  0.0000  0.0000
      *020    -0.0207  0.0083  0.0000  0.0000  0.0000  0.0000
      *011     0.0046  0.0232  0.0000  0.0000  0.0000  0.0000
      *002     0.0261  0.0161  0.0000  0.0000  0.0000  0.0000
      Total    7.2321  5.6187  0.6869  0.7488  0.8352  0.8783
 
      N-E     -1.2321  0.3813  0.3131  0.2512  0.1648  0.1217
 
      Total electronic charge=   16.000000
 
      Total            charge=   -0.000000
--
 
 

      Expectation values of various properties for root number:  3
      -----------------------------------------------------------
 
 
++    Molecular properties:
      ---------------------
 
      Charge (e):
                      =   -0.0000
      Dipole Moment (debye):
      Origin of the operator (angstrom)=    0.0498    0.0279    0.6008
                   X= -3.9902E-02               Y= -3.1254E-01               Z=  3.6991E+00           Total=  3.7125E+00
      Quadrupole Moment (debye*angstrom):
      Origin of the operator (angstrom)=    0.0498    0.0279    0.6008
                  XX= -1.1440E+01              XY=  7.2579E-01              XZ= -1.7105E+00              YY= -1.7546E+01
                  YZ=  2.7120E-01              ZZ= -1.2206E+01
      In traceless form (debye*angstrom)
                  XX=  3.4365E+00              XY=  1.0887E+00              XZ= -2.5657E+00              YY= -5.7235E+00
                  YZ=  4.0679E-01              ZZ=  2.2871E+00
--
 
 
      Input file to MOLDEN was generated!
 
 
      Input file to MOLDEN was generated!
 
 
      Input file to MOLDEN was generated!
 
 
      Input file to MOLDEN was generated!
 
      Average orbitals are written to the RASORB file
      Natural orbitals for root   1 are written to the RASORB.1 file
      Natural orbitals for root   2 are written to the RASORB.2 file
      Natural orbitals for root   3 are written to the RASORB.3 file
      Spin density orbitals for root   1 are written to the SPDORB.1 file
      Spin density orbitals for root   2 are written to the SPDORB.2 file
      Spin density orbitals for root   3 are written to the SPDORB.3 file
 
--- Stop Module: rasscf at Wed Jul  8 11:00:18 2026 /rc=_RC_ALL_IS_WELL_ ---
*** files: 07_MECI_CASPT2.rasscf.molden 07_MECI_CASPT2.rasscf.molden.1 07_MECI_CASPT2.rasscf.molden.2 07_MECI_CASPT2.rasscf.molden.3 07_MECI_CASPT2.RasOrb 07_MECI_CASPT2.RasOrb.1
           07_MECI_CASPT2.RasOrb.2 07_MECI_CASPT2.RasOrb.3 07_MECI_CASPT2.rasscf.h5 07_MECI_CASPT2.SpdOrb.1 07_MECI_CASPT2.SpdOrb.2 07_MECI_CASPT2.SpdOrb.3 xmldump
    saved to directory /vscratch/grp-cyberwksp21/sbakenhaster/wed_7_8/openmolcas_pyspawn/Tutorials_OpenMolcas/07_MECI_CASPT2
--- Module rasscf spent 3 seconds ---

*** symbolic link created: INPORB -> 07_MECI_CASPT2.RasOrb
--- Start Module: caspt2 at Wed Jul  8 11:00:18 2026 ---
 
()()()()()()()()()()()()()()()()()()()()()()()()()()()()()()()()()()()()()()()()()()()()()()()()()()

                                              &CASPT2

                       only a single process is used, running in SERIAL mode
                       available to each process: 2.0 GB of memory, 1 thread?
                                            pid: 1834520
()()()()()()()()()()()()()()()()()()()()()()()()()()()()()()()()()()()()()()()()()()()()()()()()()()
 
 ###############################################################################
 ###############################################################################
 ###                                                                         ###
 ###                                                                         ###
 ###    WARNING: User changed nr of frozen orbitals.                         ###
 ###                                                                         ###
 ###                                                                         ###
 ###############################################################################
 ###############################################################################
 
++    Wave function specifications:
      -----------------------------
 
      Number of closed shell electrons          14
      Number of electrons in active shells       2
      Max number of holes in RAS1 space          0
      Max number of electrons in RAS3 space      0
      Number of inactive orbitals                7
      Number of active orbitals                  2
      Number of secondary orbitals              29
      Spin quantum number                      0.0
      State symmetry                             1
      Number of CSFs                             3
      Number of CASSCF root(s) available         3
      CASPT2 state passed to geometry opt.       1
      A file JOBMIX will be created
      This is a MULTI-STATE CASSCF reference
      Number of CI roots used                    3
      These are:                                 1   2   3
      Off-diagonal elements of Heff are computed
--
 
++    Orbital specifications:
      -----------------------
 
      Symmetry species                           1
                                                 a
      Frozen orbitals                            0
      Inactive orbitals                          7
      Active orbitals                            2
      Secondary orbitals                        29
      Deleted orbitals                           0
      Number of basis functions                 38
--
 
++    CASPT2 specifications:
      ----------------------
 
      Type of calculation                        XMS-CASPT2
      Fock operator                              state-average
      IPEA shift                                 0.00
      Real shift                                 0.00
      Imaginary shift                            0.20
      The input orbitals will be transformed to quasi-canonical
      The input states will be rotated to diagonalize the Fock operator
      Quantities for analytical gradients will be calculated
--
 
--------------------------------------------------------------------------------
 Estimated memory requirements:
  POLY3 :                   250070
  RHS:                      280136
  SIGMA :                   274360
  PRPCTL:                   366434
 Available workspace:    249990116
 
++ CASPT2 computation for group   1
 
********************************************************************************
 Multi-State initialization phase begins for group   1
--------------------------------------------------------------------------------
 
  H0 in the original model space basis:
                1               2               3
   1      -52.28723516      0.00079114      0.00019095
   2        0.00079114    -52.37475976     -0.00537340
   3        0.00019095     -0.00537340    -52.19968980
 
  H0 eigenvectors:
                1               2               3
   1        0.99995694     -0.00908352      0.00189965
   2        0.00913747      0.99948869     -0.03064091
   3       -0.00162035      0.03065695      0.99952865
 
********************************************************************************
 Compute H0 matrices for state    1
--------------------------------------------------------------------------------
--------------------------------------------------------------------------------
 H0 matrices have been computed.
 
********************************************************************************
  CASPT2 EQUATION SOLUTION
--------------------------------------------------------------------------------
 
  Total nr of CASPT2 parameters:
   Before reduction:       39050
   After  reduction:       36669
 
 Variance of |WF0>:       1.0186828268
 
 The contributions to the second order correlation energy in atomic units.
-----------------------------------------------------------------------------------------------------------------------------
  IT.      VJTU        VJTI        ATVX        AIVX        VJAI        BVAT        BJAT        BJAI        TOTAL       RNORM  
-----------------------------------------------------------------------------------------------------------------------------
   1    -0.016478   -0.001993   -0.008086   -0.022216   -0.028436   -0.002587   -0.060961   -0.145968   -0.286725    0.001152
   2    -0.016573   -0.001995   -0.008100   -0.022248   -0.028442   -0.002590   -0.060975   -0.145981   -0.286904    0.000075
   3    -0.016573   -0.001996   -0.008100   -0.022247   -0.028443   -0.002590   -0.060975   -0.145982   -0.286907    0.000004
-----------------------------------------------------------------------------------------------------------------------------
 
  FINAL CASPT2 RESULT:
 
      Reference energy:         -77.8556260023
      E2 (Non-variational):      -0.2869061490
      Shift correction:          -0.0050188227
      E2 (Variational):          -0.2919249717
      Total energy:             -78.1475509740
      Residual norm:              0.0000001585
      Reference weight:           0.87962
 
      Contributions to the CASPT2 correlation energy
      Active & Virtual Only:         -0.0106898838
      One Inactive Excited:          -0.0997956659
      Two Inactive Excited:          -0.1764205993
 
 
++ Denominators, etc.
--------------------------------------------------------------------------------------------------------------
 Report on small energy denominators, large coefficients, and large energy contributions.
CASE  SYMM ACTIVE-MIX  NON-ACTIVE INDICES          DENOMINATOR     RHS VALUE       COEFFICIENT     CONTRIBUTION
VJTU     1  Mu1.0001  In1.003                       0.87602782      0.03577394     -0.03967410     -0.00141930
VJTU     1  Mu1.0001  In1.004                       0.63023929      0.02201487     -0.03279071     -0.00072188
VJTU     1  Mu1.0001  In1.005                       0.43571402     -0.04917003      0.09591878     -0.00471633
VJTU     1  Mu1.0001  In1.006                       0.39163279      0.03434056     -0.07240547     -0.00248644
VJTU     1  Mu1.0002  In1.006                       0.47933632      0.03689971     -0.06660023     -0.00245753
VJTU     1  Mu1.0001  In1.007                       0.36473179     -0.02018122      0.04365026     -0.00088092
VJTU     1  Mu1.0002  In1.007                       0.45243532      0.04525970     -0.08498284     -0.00384630
VJTIP    1  Mu1.0001  In1.006 In1.005               0.91505033     -0.02383719      0.02759884     -0.00065788
VJTIP    1  Mu1.0001  In1.007 In1.005               0.88814934     -0.02701133      0.03253617     -0.00087885
ATVX     1  Mu1.0002  Se1.013                       0.50985634     -0.02001721      0.03633417     -0.00072731
ATVX     1  Mu1.0002  Se1.017                       0.96976098      0.05145096     -0.05255184     -0.00270384
ATVX     1  Mu1.0001  Se1.018                       0.91349097     -0.03256008      0.03497905     -0.00113892
AIVX     1  Mu1.0003  In1.006 Se1.012               0.86363867     -0.02507630      0.02813938     -0.00070563
AIVX     1  Mu1.0003  In1.007 Se1.012               0.83673768     -0.02444059      0.02743212     -0.00067046
AIVX     1  Mu1.0003  In1.005 Se1.013               0.94557036      0.02619399     -0.02780440     -0.00072831
AIVX     1  Mu1.0003  In1.005 Se1.017               1.40547500     -0.03743251      0.02728374     -0.00102130
AIVX     1  Mu1.0003  In1.006 Se1.017               1.36139377      0.03534617     -0.02620936     -0.00092640
AIVX     1  Mu1.0003  In1.004 Se1.019               1.67716478     -0.05575483      0.03317375     -0.00184960
--
 
   (Skipping property calculation,
    use PROP keyword to activate)
********************************************************************************
 Compute H0 matrices for state    2
--------------------------------------------------------------------------------
--------------------------------------------------------------------------------
 H0 matrices have been computed.
 
********************************************************************************
  CASPT2 EQUATION SOLUTION
--------------------------------------------------------------------------------
 
  Total nr of CASPT2 parameters:
   Before reduction:       39050
   After  reduction:       29158
 
 Variance of |WF0>:       1.0739999549
 
 The contributions to the second order correlation energy in atomic units.
-----------------------------------------------------------------------------------------------------------------------------
  IT.      VJTU        VJTI        ATVX        AIVX        VJAI        BVAT        BJAT        BJAI        TOTAL       RNORM  
-----------------------------------------------------------------------------------------------------------------------------
   1    -0.003416   -0.009242   -0.002699   -0.045779   -0.026529   -0.015378   -0.060668   -0.145965   -0.309676    0.000740
   2    -0.003424   -0.009259   -0.002703   -0.045806   -0.026538   -0.015387   -0.060681   -0.145978   -0.309776    0.000034
   3    -0.003424   -0.009259   -0.002703   -0.045804   -0.026537   -0.015386   -0.060680   -0.145978   -0.309772    0.000002
-----------------------------------------------------------------------------------------------------------------------------
 
  FINAL CASPT2 RESULT:
 
      Reference energy:         -77.8147901665
      E2 (Non-variational):      -0.3097713890
      Shift correction:          -0.0036281959
      E2 (Variational):          -0.3133995849
      Total energy:             -78.1281897515
      Residual norm:              0.0000000712
      Reference weight:           0.87870
 
      Contributions to the CASPT2 correlation energy
      Active & Virtual Only:         -0.0180892291
      One Inactive Excited:          -0.1099083380
      Two Inactive Excited:          -0.1817738219
 
 
++ Denominators, etc.
--------------------------------------------------------------------------------------------------------------
 Report on small energy denominators, large coefficients, and large energy contributions.
CASE  SYMM ACTIVE-MIX  NON-ACTIVE INDICES          DENOMINATOR     RHS VALUE       COEFFICIENT     CONTRIBUTION
VJTU     1  Mu1.0001  In1.006                       0.47933632      0.02609623     -0.05006650     -0.00130655
VJTU     1  Mu1.0001  In1.007                       0.45243532      0.03200445     -0.06339556     -0.00202894
VJTIP    1  Mu1.0001  In1.004 In1.004               1.43588563      0.04727522     -0.03231592     -0.00152774
VJTIP    1  Mu1.0001  In1.006 In1.006               0.95867263      0.03811214     -0.03857139     -0.00147004
VJTIP    1  Mu1.0001  In1.007 In1.006               0.93177163      0.03622670     -0.03850101     -0.00139476
VJTIP    1  Mu1.0001  In1.007 In1.007               0.90487064      0.05319976     -0.05700064     -0.00303242
ATVX     1  Mu1.0001  Se1.013                       0.50985634      0.01415160     -0.02711149     -0.00038367
ATVX     1  Mu1.0001  Se1.017                       0.96976098     -0.03637875      0.03724014     -0.00135475
AIVX     1  Mu1.0001  In1.004 Se1.010               1.04361061     -0.04957427      0.04704836     -0.00233239
AIVX     1  Mu1.0001  In1.007 Se1.010               0.77810311      0.02362408     -0.02863558     -0.00067649
AIVX     1  Mu1.0001  In1.003 Se1.011               1.33114128      0.03838412     -0.02871914     -0.00110236
AIVX     1  Mu1.0001  In1.006 Se1.012               0.86363867      0.03777628     -0.04141260     -0.00156441
AIVX     1  Mu1.0001  In1.007 Se1.012               0.83673768      0.04825757     -0.05468811     -0.00263912
AIVX     1  Mu1.0001  In1.005 Se1.013               0.94557036     -0.02365510      0.02623432     -0.00062058
AIVX     1  Mu1.0001  In1.007 Se1.013               0.87458814     -0.02231077      0.02520896     -0.00056243
AIVX     1  Mu1.0001  In1.005 Se1.014               1.07247092      0.06537240     -0.06037865     -0.00394710
AIVX     1  Mu1.0001  In1.006 Se1.014               1.02838969      0.02859339     -0.02807659     -0.00080281
AIVX     1  Mu1.0001  In1.007 Se1.014               1.00148870     -0.03709801      0.03676570     -0.00136393
AIVX     1  Mu1.0002  In1.007 Se1.017               1.42219630     -0.03784763      0.02647662     -0.00100208
AIVX     1  Mu1.0001  In1.005 Se1.019               1.48263951      0.05657025     -0.03773353     -0.00213459
AIVX     1  Mu1.0001  In1.006 Se1.020               1.46511881      0.03820336     -0.02662987     -0.00101735
AIVX     1  Mu1.0001  In1.007 Se1.020               1.43821782     -0.05667287      0.03921773     -0.00222258
AIVX     1  Mu1.0001  In1.005 Se1.023               1.74616219      0.06451112     -0.03694270     -0.00238322
AIVX     1  Mu1.0001  In1.003 Se1.025               2.27026842      0.06109576     -0.02684588     -0.00164017
VJAIM    1  Mu1.0001  Se1.014 In1.007 In1.006       1.48082501      0.03701684     -0.02530621     -0.00093676
VJAIM    1  Mu1.0001  Se1.020 In1.007 In1.006       1.91755413      0.05038636     -0.02648330     -0.00133440
BVATP    1  Mu1.0001  Se1.017 Se1.017               1.93952196      0.08566714     -0.04422422     -0.00378856
--
 
   (Skipping property calculation,
    use PROP keyword to activate)
********************************************************************************
 Compute H0 matrices for state    3
--------------------------------------------------------------------------------
--------------------------------------------------------------------------------
 H0 matrices have been computed.
 
********************************************************************************
  CASPT2 EQUATION SOLUTION
--------------------------------------------------------------------------------
 
  Total nr of CASPT2 parameters:
   Before reduction:       39050
   After  reduction:       29158
 
 Variance of |WF0>:       1.0803172949
 
 The contributions to the second order correlation energy in atomic units.
-----------------------------------------------------------------------------------------------------------------------------
  IT.      VJTU        VJTI        ATVX        AIVX        VJAI        BVAT        BJAT        BJAI        TOTAL       RNORM  
-----------------------------------------------------------------------------------------------------------------------------
   1    -0.005432   -0.010289   -0.001634   -0.044662   -0.031147   -0.014619   -0.061967   -0.145968   -0.315717    0.000872
   2    -0.005447   -0.010318   -0.001635   -0.044686   -0.031158   -0.014621   -0.061974   -0.145981   -0.315821    0.000046
   3    -0.005448   -0.010318   -0.001635   -0.044684   -0.031156   -0.014621   -0.061973   -0.145981   -0.315816    0.000003
-----------------------------------------------------------------------------------------------------------------------------
 
  FINAL CASPT2 RESULT:
 
      Reference energy:         -77.6390555484
      E2 (Non-variational):      -0.3158158450
      Shift correction:          -0.0042110531
      E2 (Variational):          -0.3200268981
      Total energy:             -77.9590824465
      Residual norm:              0.0000001042
      Reference weight:           0.87291
 
      Contributions to the CASPT2 correlation energy
      Active & Virtual Only:         -0.0162561651
      One Inactive Excited:          -0.1121040879
      Two Inactive Excited:          -0.1874555920
 
 
++ Denominators, etc.
--------------------------------------------------------------------------------------------------------------
 Report on small energy denominators, large coefficients, and large energy contributions.
CASE  SYMM ACTIVE-MIX  NON-ACTIVE INDICES          DENOMINATOR     RHS VALUE       COEFFICIENT     CONTRIBUTION
VJTU     1  Mu1.0002  In1.003                       0.87602782     -0.02529385      0.02770456     -0.00070076
VJTU     1  Mu1.0002  In1.005                       0.43571402      0.03476844     -0.06935806     -0.00241147
VJTU     1  Mu1.0002  In1.006                       0.39163279     -0.02428208      0.05478491     -0.00133029
VJTU     1  Mu1.0001  In1.007                       0.27702827      0.00632200     -0.01441437     -0.00009113
VJTU     1  Mu1.0002  In1.007                       0.36473179      0.01426944     -0.03424804     -0.00048870
VJTIP    1  Mu1.0001  In1.004 In1.004               1.26047858      0.04009697     -0.03117703     -0.00125010
VJTIP    1  Mu1.0001  In1.005 In1.005               0.87142803      0.05370781     -0.05973723     -0.00320836
VJTIP    1  Mu1.0001  In1.006 In1.005               0.82734681     -0.02671500      0.03230043     -0.00086291
VJTIP    1  Mu1.0001  In1.006 In1.006               0.78326558      0.03286214     -0.04011082     -0.00131813
VJTIP    1  Mu1.0001  In1.007 In1.007               0.72946359      0.02289973     -0.02879912     -0.00065949
ATVX     1  Mu1.0001  Se1.010                       0.23796427      0.00265177     -0.00624251     -0.00001655
ATVX     1  Mu1.0001  Se1.011                       0.27970641     -0.00362060      0.00865837     -0.00003135
ATVX     1  Mu1.0001  Se1.012                       0.29659883     -0.00071514      0.00193494     -0.00000138
AIVX     1  Mu1.0003  In1.004 Se1.010               1.04361061     -0.04957489      0.04743401     -0.00235154
AIVX     1  Mu1.0003  In1.007 Se1.010               0.77810311      0.02362547     -0.02953627     -0.00069781
AIVX     1  Mu1.0003  In1.003 Se1.011               1.33114128      0.03838463     -0.02884717     -0.00110729
AIVX     1  Mu1.0003  In1.006 Se1.012               0.86363867      0.03777376     -0.04381502     -0.00165506
AIVX     1  Mu1.0003  In1.007 Se1.012               0.83673768      0.04825849     -0.05727231     -0.00276388
AIVX     1  Mu1.0003  In1.005 Se1.014               1.07247092      0.06537217     -0.05948967     -0.00388897
AIVX     1  Mu1.0003  In1.006 Se1.014               1.02838969      0.02859307     -0.02893102     -0.00082723
AIVX     1  Mu1.0003  In1.007 Se1.014               1.00148870     -0.03709954      0.03713804     -0.00137780
AIVX     1  Mu1.0003  In1.005 Se1.019               1.48263951      0.05657070     -0.03755983     -0.00212479
AIVX     1  Mu1.0003  In1.006 Se1.020               1.46511881      0.03820417     -0.02548381     -0.00097359
AIVX     1  Mu1.0003  In1.007 Se1.020               1.43821782     -0.05667429      0.03902632     -0.00221179
AIVX     1  Mu1.0003  In1.005 Se1.023               1.74616219      0.06451140     -0.03653846     -0.00235715
AIVX     1  Mu1.0003  In1.003 Se1.025               2.27026842      0.06109749     -0.02691583     -0.00164449
VJAIM    1  Mu1.0001  Se1.014 In1.006 In1.005       1.46410371      0.04249148     -0.02940865     -0.00124962
BVATP    1  Mu1.0001  Se1.018 Se1.018               1.82698193      0.08546081     -0.04627320     -0.00395455
--
 
   (Skipping property calculation,
    use PROP keyword to activate)
--
 
  Total CASPT2 energies:
 
  State-specific CASPT2 energies obtained using
  rotated states do not have a well-defined physical
  meaning, however they can be extracted from the
  diagonal of the effective Hamiltonian.
 
++ Multi-State CASPT2 section:
********************************************************************************
  MULTI-STATE CASPT2 SECTION
--------------------------------------------------------------------------------
 
 
  Effective Hamiltonian matrix (Symmetric):
 
                1               2               3
   1       -78.14754700
   2         0.00097657    -78.12802796
   3         0.00048957      0.00150400    -77.95924822
 
       Total XMS-CASPT2 energies:
::    XMS-CASPT2 Root  1     Total energy:    -78.14759664
::    XMS-CASPT2 Root  2     Total energy:    -78.12799303
::    XMS-CASPT2 Root  3     Total energy:    -77.95923350
 
       Eigenvectors:
            0.99876307      0.04965212      0.00264593
           -0.04967390      0.99872561      0.00892517
           -0.00219941     -0.00904556      0.99995667
 
       In terms of the input states:
            0.99916710      0.04056086      0.00446431
           -0.04045494      0.99894581     -0.02169481
           -0.00533956      0.02149613      0.99975467
 
--
 
********************************************************************************
 SECOND RUN to compute analytical gradients/NAC quantities
--------------------------------------------------------------------------------
 
++ CASPT2 computation for group   1
 
********************************************************************************
 Multi-State initialization phase begins for group   1
--------------------------------------------------------------------------------
 
  H0 in the original model space basis:
                1               2               3
   1      -52.28722824      0.00000000      0.00000000
   2        0.00000000    -52.37493177      0.00000000
   3        0.00000000      0.00000000    -52.19952472
 
  H0 eigenvectors:
                1               2               3
   1        1.00000000     -0.00000000      0.00000000
   2        0.00000000      1.00000000      0.00000000
   3       -0.00000000     -0.00000000      1.00000000
 
********************************************************************************
  CASPT2 EQUATION SOLUTION (SECOND RUN)
********************************************************************************
 
********************************************************************************
  CASPT2 PROPERTY SECTION
--------------------------------------------------------------------------------
 
 Variance of |WF0>:       0.0022300262
 
 Solving the Lambda equation for analytic gradients
-----------------------------------------------------------------------------------------------------------------------------
  IT.      VJTU        VJTI        ATVX        AIVX        VJAI        BVAT        BJAT        BJAI        TOTAL       RNORM  
-----------------------------------------------------------------------------------------------------------------------------
   1    -0.001914   -0.000055   -0.000158   -0.000181   -0.000086   -0.000044   -0.000169   -0.000015   -0.002623    0.000378
   2    -0.001927   -0.000055   -0.000159   -0.000182   -0.000086   -0.000044   -0.000169   -0.000015   -0.002637    0.000012
-----------------------------------------------------------------------------------------------------------------------------
 
********************************************************************************
  CASPT2 EQUATION SOLUTION (SECOND RUN)
********************************************************************************
 
********************************************************************************
  CASPT2 PROPERTY SECTION
--------------------------------------------------------------------------------
 
 Variance of |WF0>:       0.0004891450
 
 Solving the Lambda equation for analytic gradients
-----------------------------------------------------------------------------------------------------------------------------
  IT.      VJTU        VJTI        ATVX        AIVX        VJAI        BVAT        BJAT        BJAI        TOTAL       RNORM  
-----------------------------------------------------------------------------------------------------------------------------
   1    -0.000036   -0.000004   -0.000019   -0.000049   -0.000036   -0.000006   -0.000074   -0.000000   -0.000224    0.000036
   2    -0.000036   -0.000004   -0.000019   -0.000049   -0.000036   -0.000006   -0.000074   -0.000000   -0.000224    0.000002
-----------------------------------------------------------------------------------------------------------------------------
 
********************************************************************************
  CASPT2 EQUATION SOLUTION (SECOND RUN)
********************************************************************************
 
********************************************************************************
  CASPT2 PROPERTY SECTION
--------------------------------------------------------------------------------
 
 Variance of |WF0>:       0.0000009362
 
[...]
--- Start Module: seward at Wed Jul  8 11:03:32 2026 ---
--- Stop Module: seward at Wed Jul  8 11:03:33 2026 /rc=_RC_ALL_IS_WELL_ ---
*** files: xmldump
    saved to directory /vscratch/grp-cyberwksp21/sbakenhaster/wed_7_8/openmolcas_pyspawn/Tutorials_OpenMolcas/07_MECI_CASPT2

>>> IF (ITER == 1)
(Skipped)

*** symbolic link created: INPORB -> 07_MECI_CASPT2.RasOrb
--- Start Module: rasscf at Wed Jul  8 11:03:33 2026 ---
--- Stop Module: rasscf at Wed Jul  8 11:03:36 2026 /rc=_RC_ALL_IS_WELL_ ---
*** files: 07_MECI_CASPT2.rasscf.molden 07_MECI_CASPT2.rasscf.molden.1 07_MECI_CASPT2.rasscf.molden.2 07_MECI_CASPT2.rasscf.molden.3 07_MECI_CASPT2.RasOrb 07_MECI_CASPT2.RasOrb.1
           07_MECI_CASPT2.RasOrb.2 07_MECI_CASPT2.RasOrb.3 07_MECI_CASPT2.rasscf.h5 07_MECI_CASPT2.SpdOrb.1 07_MECI_CASPT2.SpdOrb.2 07_MECI_CASPT2.SpdOrb.3 xmldump
    saved to directory /vscratch/grp-cyberwksp21/sbakenhaster/wed_7_8/openmolcas_pyspawn/Tutorials_OpenMolcas/07_MECI_CASPT2
--- Module rasscf spent 2 seconds ---

*** symbolic link created: INPORB -> 07_MECI_CASPT2.RasOrb
--- Start Module: caspt2 at Wed Jul  8 11:03:36 2026 ---
 * TypeIndex information is IGNORED *
--- Stop Module: caspt2 at Wed Jul  8 11:03:37 2026 /rc=_RC_ALL_IS_WELL_ ---
*** files: 07_MECI_CASPT2.caspt2.molden 07_MECI_CASPT2.Pt2Orb xmldump
    saved to directory /vscratch/grp-cyberwksp21/sbakenhaster/wed_7_8/openmolcas_pyspawn/Tutorials_OpenMolcas/07_MECI_CASPT2
--- Module caspt2 spent 1 second ---

*** symbolic link created: INPORB -> 07_MECI_CASPT2.RasOrb
--- Start Module: slapaf at Wed Jul  8 11:03:37 2026 ---
--- Stop Module: slapaf at Wed Jul  8 11:03:37 2026 /rc=_RC_INVOKED_OTHER_MODULE_ ---
*** files: 07_MECI_CASPT2.slapaf.h5 xmldump
    saved to directory /vscratch/grp-cyberwksp21/sbakenhaster/wed_7_8/openmolcas_pyspawn/Tutorials_OpenMolcas/07_MECI_CASPT2

*** symbolic link created: INPORB -> 07_MECI_CASPT2.RasOrb
--- Start Module: alaska at Wed Jul  8 11:03:38 2026 ---
--- Stop Module: alaska at Wed Jul  8 11:03:38 2026 /rc=_RC_INVOKED_OTHER_MODULE_ ---
*** files: xmldump
    saved to directory /vscratch/grp-cyberwksp21/sbakenhaster/wed_7_8/openmolcas_pyspawn/Tutorials_OpenMolcas/07_MECI_CASPT2

*** symbolic link created: INPORB -> 07_MECI_CASPT2.RasOrb
--- Start Module: mclr at Wed Jul  8 11:03:38 2026 ---
 
--- Stop Module: mclr at Wed Jul  8 11:03:38 2026 /rc=_RC_ALL_IS_WELL_ ---
*** files: xmldump
    saved to directory /vscratch/grp-cyberwksp21/sbakenhaster/wed_7_8/openmolcas_pyspawn/Tutorials_OpenMolcas/07_MECI_CASPT2

*** symbolic link created: INPORB -> 07_MECI_CASPT2.RasOrb
--- Start Module: alaska at Wed Jul  8 11:03:39 2026 ---
--- Stop Module: alaska at Wed Jul  8 11:03:39 2026 /rc=_RC_ALL_IS_WELL_ ---
*** files: xmldump
    saved to directory /vscratch/grp-cyberwksp21/sbakenhaster/wed_7_8/openmolcas_pyspawn/Tutorials_OpenMolcas/07_MECI_CASPT2

>>> EXPORT MOLCAS_TRAP = YES

*** symbolic link created: INPORB -> 07_MECI_CASPT2.RasOrb
--- Start Module: slapaf at Wed Jul  8 11:03:39 2026 ---
--- Stop Module: slapaf at Wed Jul  8 11:03:40 2026 /rc=_RC_INVOKED_OTHER_MODULE_ ---
*** files: 07_MECI_CASPT2.slapaf.h5 xmldump
    saved to directory /vscratch/grp-cyberwksp21/sbakenhaster/wed_7_8/openmolcas_pyspawn/Tutorials_OpenMolcas/07_MECI_CASPT2

*** symbolic link created: INPORB -> 07_MECI_CASPT2.RasOrb
--- Start Module: alaska at Wed Jul  8 11:03:40 2026 ---
--- Stop Module: alaska at Wed Jul  8 11:03:40 2026 /rc=_RC_INVOKED_OTHER_MODULE_ ---
*** files: xmldump
    saved to directory /vscratch/grp-cyberwksp21/sbakenhaster/wed_7_8/openmolcas_pyspawn/Tutorials_OpenMolcas/07_MECI_CASPT2

*** symbolic link created: INPORB -> 07_MECI_CASPT2.RasOrb
--- Start Module: mclr at Wed Jul  8 11:03:40 2026 ---
--- Stop Module: mclr at Wed Jul  8 11:03:40 2026 /rc=_RC_INVOKED_OTHER_MODULE_ ---
*** files: xmldump
    saved to directory /vscratch/grp-cyberwksp21/sbakenhaster/wed_7_8/openmolcas_pyspawn/Tutorials_OpenMolcas/07_MECI_CASPT2

*** symbolic link created: INPORB -> 07_MECI_CASPT2.RasOrb
--- Start Module: caspt2 at Wed Jul  8 11:03:40 2026 ---
 * TypeIndex information is IGNORED *
--- Stop Module: caspt2 at Wed Jul  8 11:03:41 2026 /rc=_RC_ALL_IS_WELL_ ---
*** files: 07_MECI_CASPT2.caspt2.molden 07_MECI_CASPT2.Pt2Orb xmldump
    saved to directory /vscratch/grp-cyberwksp21/sbakenhaster/wed_7_8/openmolcas_pyspawn/Tutorials_OpenMolcas/07_MECI_CASPT2
--- Module caspt2 spent 1 second ---

*** symbolic link created: INPORB -> 07_MECI_CASPT2.RasOrb
--- Start Module: mclr at Wed Jul  8 11:03:41 2026 ---
 
--- Stop Module: mclr at Wed Jul  8 11:03:42 2026 /rc=_RC_ALL_IS_WELL_ ---
*** files: xmldump
    saved to directory /vscratch/grp-cyberwksp21/sbakenhaster/wed_7_8/openmolcas_pyspawn/Tutorials_OpenMolcas/07_MECI_CASPT2

*** symbolic link created: INPORB -> 07_MECI_CASPT2.RasOrb
--- Start Module: alaska at Wed Jul  8 11:03:42 2026 ---
--- Stop Module: alaska at Wed Jul  8 11:03:43 2026 /rc=_RC_ALL_IS_WELL_ ---
*** files: xmldump
    saved to directory /vscratch/grp-cyberwksp21/sbakenhaster/wed_7_8/openmolcas_pyspawn/Tutorials_OpenMolcas/07_MECI_CASPT2

>>> RM -FORCE 07_MECI_CASPT2.MckInt

>>> EXPORT MOLCAS_TRAP = ON

>>> EXPORT MOLCAS_TRAP = YES

*** symbolic link created: INPORB -> 07_MECI_CASPT2.RasOrb
--- Start Module: slapaf at Wed Jul  8 11:03:43 2026 ---
--- Stop Module: slapaf at Wed Jul  8 11:03:43 2026 /rc=_RC_INVOKED_OTHER_MODULE_ ---
*** files: 07_MECI_CASPT2.slapaf.h5 xmldump
    saved to directory /vscratch/grp-cyberwksp21/sbakenhaster/wed_7_8/openmolcas_pyspawn/Tutorials_OpenMolcas/07_MECI_CASPT2

*** symbolic link created: INPORB -> 07_MECI_CASPT2.RasOrb
--- Start Module: alaska at Wed Jul  8 11:03:43 2026 ---
--- Stop Module: alaska at Wed Jul  8 11:03:43 2026 /rc=_RC_INVOKED_OTHER_MODULE_ ---
*** files: xmldump
    saved to directory /vscratch/grp-cyberwksp21/sbakenhaster/wed_7_8/openmolcas_pyspawn/Tutorials_OpenMolcas/07_MECI_CASPT2

*** symbolic link created: INPORB -> 07_MECI_CASPT2.RasOrb
--- Start Module: mclr at Wed Jul  8 11:03:43 2026 ---
--- Stop Module: mclr at Wed Jul  8 11:03:43 2026 /rc=_RC_INVOKED_OTHER_MODULE_ ---
*** files: xmldump
    saved to directory /vscratch/grp-cyberwksp21/sbakenhaster/wed_7_8/openmolcas_pyspawn/Tutorials_OpenMolcas/07_MECI_CASPT2

*** symbolic link created: INPORB -> 07_MECI_CASPT2.RasOrb
--- Start Module: caspt2 at Wed Jul  8 11:03:43 2026 ---
--- Stop Module: caspt2 at Wed Jul  8 11:03:44 2026 /rc=_RC_ALL_IS_WELL_ ---
*** files: xmldump
    saved to directory /vscratch/grp-cyberwksp21/sbakenhaster/wed_7_8/openmolcas_pyspawn/Tutorials_OpenMolcas/07_MECI_CASPT2

*** symbolic link created: INPORB -> 07_MECI_CASPT2.RasOrb
--- Start Module: mclr at Wed Jul  8 11:03:44 2026 ---
 
--- Stop Module: mclr at Wed Jul  8 11:03:45 2026 /rc=_RC_ALL_IS_WELL_ ---
*** files: xmldump
    saved to directory /vscratch/grp-cyberwksp21/sbakenhaster/wed_7_8/openmolcas_pyspawn/Tutorials_OpenMolcas/07_MECI_CASPT2

*** symbolic link created: INPORB -> 07_MECI_CASPT2.RasOrb
--- Start Module: alaska at Wed Jul  8 11:03:45 2026 ---
 Skipping Nuclear Charge Contribution
 
 *****************************************************
 *                                                   *
 *              CI derivative coupling               *
 *                                                   *
 *****************************************************
 
  Irreducible representation: a  
 ------------------------------------------------------------------------------------------
                              X                       Y                       Z
 ------------------------------------------------------------------------------------------
  C1                5.31747116437969E-04   -1.47051312583600E-02    1.78918481193655E-02
  C2               -3.08424645163994E-02    1.07033388803213E-02   -4.52541158356351E-03
  H3                1.83452668545202E-03   -2.68710433810934E-02   -2.27774585474252E-04
  H4               -3.65730052964609E-03    2.06164571397869E-02   -1.98929350884708E-03
  H5               -4.76491073998966E-03   -8.72080108717896E-03    1.16747366357017E-02
  H6                3.68984019841448E-02    1.89771797065248E-02   -2.28241050771827E-02
 ------------------------------------------------------------------------------------------
 
               Energy difference:  3.105629E-06
 
 *******************************************************
 *                                                     *
 *              Total derivative coupling              *
 *                                                     *
 *******************************************************
 
  Irreducible representation: a  
 ------------------------------------------------------------------------------------------
                              X                       Y                       Z
 ------------------------------------------------------------------------------------------
  C1                1.71220404056747E+02   -4.73499232610810E+03    5.76110216608401E+03
  C2               -9.93114785836328E+03    3.44643149194903E+03   -1.45716408403169E+03
  H3                5.90710115063919E+02   -8.65236644056894E+03   -7.33424880984926E+01
  H4               -1.17763586314813E+03    6.63841516497382E+03   -6.40544401357358E+02
  H5               -1.53428183618657E+03   -2.80806240351185E+03    3.75921760970026E+03
  H6                1.18811350385772E+04    6.11057451326624E+03   -7.34926880229685E+03
 ------------------------------------------------------------------------------------------
 
               norm:   23371.6777
--- Stop Module: alaska at Wed Jul  8 11:03:45 2026 /rc=_RC_ALL_IS_WELL_ ---
*** files: xmldump
    saved to directory /vscratch/grp-cyberwksp21/sbakenhaster/wed_7_8/openmolcas_pyspawn/Tutorials_OpenMolcas/07_MECI_CASPT2

>>> RM -FORCE 07_MECI_CASPT2.MckInt

>>> EXPORT MOLCAS_TRAP = ON

>>> EXPORT MOLCAS_TRAP = YES

*** symbolic link created: INPORB -> 07_MECI_CASPT2.RasOrb
--- Start Module: slapaf at Wed Jul  8 11:03:45 2026 ---
A        : Energy difference =         0.00000311 hartree,         0.00815383 kJ/mol
           Average energy    =       -78.13496142 hartree
NADC     : H12               =         0.00000000 hartree 
 
**********************************************************************************************************************
*                                    Energy Statistics for Geometry Optimization                                     *
**********************************************************************************************************************
                       Energy     Grad      Grad              Step                 Estimated   Geom       Hessian     
Iter      Energy       Change     Norm      Max    Element    Max     Element     Final Energy Update Update   Index  
  1    -78.13779484  0.00000000 0.069507  0.041862 nrc002   0.070121  nrc005      -78.14157394 RS-RFO  None      0    
  2    -78.13310994  0.00468489 0.017696 -0.011992 nrc005  -0.148504  nrc011      -78.13379461 RS-RFO  BFGS      0(1) 
  3    -78.13427683 -0.00116689 0.008858 -0.005729 nrc005  -0.107974  nrc008      -78.13474929 RS-RFO  BFGS      0(1) 
  4    -78.13469305 -0.00041622 0.006987 -0.003969 nrc003  -0.069083  nrc011      -78.13483968 RS-RFO  BFGS      0    
  5    -78.13487607 -0.00018302 0.004334  0.002786 nrc005  -0.061199  nrc011      -78.13493512 RS-RFO  BFGS      0    
  6    -78.13492441 -0.00004834 0.002321 -0.001053 nrc010   0.041583  nrc011      -78.13496153 RS-RFO  BFGS      0    
  7    -78.13495428 -0.00002987 0.002022 -0.001097 nrc010   0.030901  nrc009      -78.13498218 RS-RFO  BFGS      0    
  8    -78.13494264  0.00001164 0.002216 -0.001413 nrc005  -0.014656  nrc012      -78.13496188 RS-RFO  BFGS      0    
  9    -78.13494835 -0.00000571 0.001975  0.001244 nrc003   0.008933  nrc008      -78.13495970 RS-RFO  BFGS      0    
 10    -78.13495867 -0.00001032 0.000372 -0.000308 nrc009   0.009369  nrc011      -78.13495962 RS-RFO  BFGS      0    
 11    -78.13496068 -0.00000201 0.000263 -0.000133 nrc008  -0.011566  nrc011      -78.13496188 RS-RFO  BFGS      0    
 12    -78.13496020  0.00000048 0.000211  0.000143 nrc008   0.011661  nrc011      -78.13496117 RS-RFO  BFGS      0    
 13    -78.13496049 -0.00000028 0.000263 -0.000131 nrc008  -0.015699  nrc011      -78.13496171 RS-RFO  BFGS      0    
 14    -78.13495984  0.00000065 0.000423  0.000250 nrc008   0.009400  nrc011      -78.13496154 RS-RFO  BFGS      0    
 15    -78.13496142 -0.00000158 0.000055 -0.000040 nrc004   0.000721  nrc011      -78.13496144 RS-RFO  BFGS      0    
 
       +----------------------------------+----------------------------------+
       +    Cartesian Displacements       +    Gradient in internals         +
       +  Value      Threshold Converged? +  Value      Threshold Converged? +
 +-----+----------------------------------+----------------------------------+
 + RMS + 3.2397E-04  1.2000E-03     Yes   + 1.5966E-05  3.0000E-04     Yes   +
 +-----+----------------------------------+----------------------------------+
 + Max + 5.0132E-04  1.8000E-03     Yes   + 4.0207E-05  4.5000E-04     Yes   +
 +-----+----------------------------------+----------------------------------+
 
 Geometry is converged in  15 iterations to a Minimum Energy Crossing Point Structure
 
*****************************************************************************************************************
*****************************************************************************************************************
 
++ Conical Intersection Characterization
   -------------------------------------
 
 See: J. Chem. Theory Comput. 12 (2016) 3636-3653
 
     Pitch (delta_gh):                  8.60865E-02 Eh/a0
     Asymmetry (Delta_gh):              4.30666E-01
     Relative tilt (sigma=s/delta_gh):  6.19057E-01
     Tilt heading (theta_s):            2.64162E-01
 
     P:    2.95497E-01
     B:    1.15474E+00
     Type: peaked (P<1) single-path (B>1)
 
 Local linear representation:
 
  Local x                                                     
  mat. size =     6x    3
        0.3282560005239414     -0.2024487410590295      0.3107014764214363
       -0.6598178583439038      0.3060767434763251      0.1698708190727927
        0.0035311186643230      0.0351867041499113     -0.0662306652099433
       -0.0117032420843257     -0.0436589171773256      0.0120785554175412
        0.1955575437006462     -0.1085571066619703     -0.0968239572324100
        0.1441764375392824      0.0134013172721184     -0.3295962284694861
 
  Local y                                                     
  mat. size =     6x    3
       -0.2218167812224994     -0.1053245686245983      0.0828881507881583
       -0.0555537700990261     -0.0349231483732805     -0.1956363760660901
        0.0284130347091959     -0.4772757779994289      0.0427257977744652
       -0.0533653983943759      0.3778976676467329     -0.0419934654047588
       -0.2177282079339508     -0.0705498189529072      0.2646853381632600
        0.5200511229406760      0.3101756463034722     -0.1526694452549927
 
     Average energy:    -78.13496142 +   0.05144383*x +   0.01391470*y
     Energy difference:   0.17217295*sqrt(r^2 +   0.43066551*t)
          r^2 = x^2 + y^2
          t = x^2 - y^2
--
 
++ Geometry section
 
********************************************************************************
  Geometrical information of the final structure
********************************************************************************
 
  NOTE: on convergence the final predicted structure will be printed here.
  This is not identical to the structure printed in the head of the output.
 
 *********************************************************
 * Nuclear coordinates of the final structure / bohr     *
 *********************************************************
  ATOM              X               Y               Z     
  C1              -0.009157        0.161488       -0.125074
  C2               0.003658        0.108356        2.568434
  H3               1.659521        0.224517       -1.358383
  H4              -1.772027       -0.134417       -1.161810
  H5               1.471424        1.266502        3.492824
  H6               1.336179       -1.626445        2.272086
 
 
 *********************************************************
 * Nuclear coordinates of the final structure / angstrom *
 *********************************************************
  ATOM              X               Y               Z     
  C1              -0.004846        0.085456       -0.066186
  C2               0.001936        0.057340        1.359157
  H3               0.878181        0.118809       -0.718826
  H4              -0.937716       -0.071130       -0.614804
  H5               0.778644        0.670204        1.848323
  H6               0.707076       -0.860678        1.202336
 
 
                    *************************************** 
                    *    InterNuclear Distances / bohr    * 
                    *************************************** 
 
               1 C1            2 C2            3 H3            4 H4            5 H5    
    1 C1       0.000000
    2 C2       2.694062        0.000000
    3 H3       2.075936        4.263246        0.000000
    4 H4       2.066421        4.138444        3.455864        0.000000
    5 H5       4.062309        2.085697        4.965413        5.843643        0.000000
    6 H6       3.279179        2.207481        4.087899        4.866081        3.142871
 
               6 H6    
    6 H6       0.000000
 
                    ******************************************* 
                    *    InterNuclear Distances / angstrom    * 
                    ******************************************* 
 
               1 C1            2 C2            3 H3            4 H4            5 H5    
    1 C1       0.000000
    2 C2       1.425636        0.000000
    3 H3       1.098538        2.256013        0.000000
    4 H4       1.093503        2.189970        1.828765        0.000000
    5 H5       2.149681        1.103704        2.627583        3.092323        0.000000
    6 H6       1.735267        1.168149        2.163223        2.575019        1.663136
 
               6 H6    
    6 H6       0.000000
 
                    ************************************** 
                    *    Valence Bond Angles / degree    * 
                    ************************************** 
                          Atom centers                 Phi
                      2 C2       1 C1       3 H3       126.21
                      2 C2       1 C1       4 H4       120.19
                      3 H3       1 C1       4 H4       113.08
                      1 C1       2 C2       5 H5       115.82
                      1 C1       2 C2       6 H6        83.35
                      5 H5       2 C2       6 H6        94.08
 
           ***************************************************************
           *              Valence Dihedral Angles / degree               *
           ***************************************************************
                    Atom centers                       Phi1     Phi2     Theta 
           3 H3       1 C1       2 C2       5 H5        126.21   115.82    37.46
           3 H3       1 C1       2 C2       6 H6        126.21    83.35   -53.86
           4 H4       1 C1       2 C2       5 H5        120.19   115.82  -151.41
           4 H4       1 C1       2 C2       6 H6        120.19    83.35   117.27
--
--- Stop Module: slapaf at Wed Jul  8 11:03:46 2026 /rc=_RC_ALL_IS_WELL_ ---
*** files: 07_MECI_CASPT2.geo.molden 07_MECI_CASPT2.slapaf.h5 07_MECI_CASPT2.structure 07_MECI_CASPT2.Opt.xyz xmldump
    saved to directory /vscratch/grp-cyberwksp21/sbakenhaster/wed_7_8/openmolcas_pyspawn/Tutorials_OpenMolcas/07_MECI_CASPT2

>>> END DO

.##################.
.# Happy landing! #.
.##################.

    Timing: Wall=198.28 User=99.97 System=23.89
