[Molden Format]
[N_Atoms]
                     6
[Atoms] (AU)
C1          1      6          -0.00917353      0.16168549     -0.12506671
C2          2      6           0.00382627      0.10852828      2.56850379
H3          3      1           1.65950153      0.22433259     -1.35838708
H4          4      1          -1.77197557     -0.13466441     -1.16181215
H5          5      1           1.47139991      1.26664457      3.49322019
H6          6      1           1.33601946     -1.62652463      2.27161759
[Charge] (Mulliken)
  0.000000000000000E+000
  0.000000000000000E+000
  0.000000000000000E+000
  0.000000000000000E+000
  0.000000000000000E+000
  0.000000000000000E+000
[GTO] (AU)
   1
   s   6
  3.047524880E+03  1.834737132E-03
  4.573695180E+02  1.403732281E-02
  1.039486850E+02  6.884262227E-02
  2.921015530E+01  2.321844432E-01
  9.286662960E+00  4.679413484E-01
  3.163926960E+00  3.623119853E-01
   s   3
  7.868272350E+00 -1.193324198E-01
  1.881288540E+00 -1.608541517E-01
  5.442492580E-01  1.143456438E+00
   s   1
  1.687144782E-01  1.000000000E+00
   p   3
  7.868272350E+00  6.899906659E-02
  1.881288540E+00  3.164239610E-01
  5.442492580E-01  7.443082909E-01
   p   1
  1.687144782E-01  1.000000000E+00
   d   1
  8.000000000E-01  1.000000000E+00
 
   2
   s   6
  3.047524880E+03  1.834737132E-03
  4.573695180E+02  1.403732281E-02
  1.039486850E+02  6.884262227E-02
  2.921015530E+01  2.321844432E-01
  9.286662960E+00  4.679413484E-01
  3.163926960E+00  3.623119853E-01
   s   3
  7.868272350E+00 -1.193324198E-01
  1.881288540E+00 -1.608541517E-01
  5.442492580E-01  1.143456438E+00
   s   1
  1.687144782E-01  1.000000000E+00
   p   3
  7.868272350E+00  6.899906659E-02
  1.881288540E+00  3.164239610E-01
  5.442492580E-01  7.443082909E-01
   p   1
  1.687144782E-01  1.000000000E+00
   d   1
  8.000000000E-01  1.000000000E+00
 
   3
   s   3
  1.873113696E+01  3.349460434E-02
  2.825394365E+00  2.347269535E-01
  6.401216923E-01  8.137573261E-01
   s   1
  1.612777588E-01  1.000000000E+00
 
   4
   s   3
  1.873113696E+01  3.349460434E-02
  2.825394365E+00  2.347269535E-01
  6.401216923E-01  8.137573261E-01
   s   1
  1.612777588E-01  1.000000000E+00
 
   5
   s   3
  1.873113696E+01  3.349460434E-02
  2.825394365E+00  2.347269535E-01
  6.401216923E-01  8.137573261E-01
   s   1
  1.612777588E-01  1.000000000E+00
 
   6
   s   3
  1.873113696E+01  3.349460434E-02
  2.825394365E+00  2.347269535E-01
  6.401216923E-01  8.137573261E-01
   s   1
  1.612777588E-01  1.000000000E+00
 
[MO]
Sym=     1a  
Ene=   -11.2750
Spin= Alpha
Occup=    2.00000
   1         0.01273946
   2         0.00037172
   3         0.00373682
   4         0.00006162
   5        -0.00004040
   6        -0.00019508
   7         0.00060799
   8         0.00039344
   9         0.00188736
  10        -0.00008434
  11        -0.00013584
  12        -0.00046842
  13         0.00003580
  14         0.00003011
  15         0.00009548
  16         0.99579677
  17         0.02677686
  18        -0.01292563
  19         0.00074038
  20        -0.00019413
  21        -0.00045421
  22        -0.00256259
  23         0.00005906
  24         0.00191213
  25        -0.00183185
  26        -0.00175682
  27        -0.00145921
  28         0.00002700
  29         0.00019751
  30         0.00007764
  31        -0.00006107
  32        -0.00011266
  33        -0.00012414
  34         0.00041966
  35         0.00005257
  36         0.00274880
  37         0.00015112
  38         0.00248640
Sym=     2a  
Ene=   -11.2380
Spin= Alpha
Occup=    2.00000
   1         0.99559818
   2         0.02700931
   3        -0.01034813
   4         0.00006419
   5        -0.00032726
   6         0.00025721
   7         0.00011026
   8         0.00037889
   9        -0.00031761
  10        -0.00192428
  11        -0.00229117
  12        -0.00158221
  13         0.00007143
  14         0.00005371
  15         0.00003015
  16        -0.01305859
  17        -0.00017469
  18         0.00177003
  19         0.00006796
  20        -0.00001173
  21         0.00025698
  22        -0.00041815
  23         0.00030741
  24        -0.00121359
  25        -0.00005618
  26        -0.00000685
  27        -0.00047068
  28         0.00004400
  29         0.00000530
  30        -0.00001993
  31        -0.00022056
  32         0.00192361
  33        -0.00012628
  34         0.00214360
  35        -0.00001883
  36         0.00026952
  37         0.00010110
  38         0.00084473
Sym=     3a  
Ene=    -1.0317
Spin= Alpha
Occup=    2.00000
   1        -0.14391388
   2         0.27010960
   3         0.22062077
   4         0.01905158
   5        -0.01064929
   6         0.09242465
   7         0.00902403
   8        -0.00666344
   9         0.00940332
  10         0.00490332
  11        -0.01204717
  12         0.01868632
  13         0.00029460
  14         0.00013941
  15        -0.00174105
  16        -0.15391447
  17         0.29532458
  18         0.26389018
  19         0.04569123
  20        -0.01478678
  21        -0.10614701
  22         0.02080206
  23        -0.00748131
  24        -0.01302587
  25        -0.00079206
  26         0.00015205
  27         0.01214449
  28        -0.00354686
  29         0.00233164
  30         0.00675871
  31         0.08290205
  32         0.02031876
  33         0.06863529
  34         0.01156328
  35         0.08652135
  36         0.00836062
  37         0.11125478
  38         0.01961994
Sym=     4a  
Ene=    -0.7896
Spin= Alpha
Occup=    2.00000
   1         0.12985334
   2        -0.24919617
   3        -0.30177768
   4         0.03554951
   5         0.00994166
   6         0.17334613
   7        -0.00639416
   8         0.00301288
   9         0.05458462
  10        -0.02280792
  11         0.01050109
  12         0.00106063
  13        -0.00485031
  14         0.00139627
  15        -0.00287637
  16        -0.11025144
  17         0.21138940
  18         0.27293327
  19         0.10924422
  20         0.00780519
  21         0.11080887
  22         0.04985939
  23        -0.00185378
  24         0.03575374
  25         0.01028177
  26         0.00765561
  27        -0.01044642
  28         0.00139770
  29         0.00798046
  30         0.00895756
  31        -0.14262079
  32        -0.05464554
  33        -0.16571750
  34        -0.08315769
  35         0.15212188
  36         0.06429613
  37         0.09548513
  38         0.03869741
Sym=     5a  
Ene=    -0.5945
Spin= Alpha
Occup=    2.00000
   1        -0.00016876
   2        -0.00101184
   3        -0.00526234
   4         0.27483723
   5         0.04351233
   6        -0.24974982
   7         0.13794248
   8         0.02148376
   9        -0.10354462
  10         0.01574813
  11        -0.00084445
  12        -0.00759475
  13        -0.00168798
  14        -0.01361032
  15         0.00381452
  16         0.02881333
  17        -0.06913388
  18        -0.05364876
  19         0.21156470
  20         0.10586941
  21         0.21914279
  22         0.11396787
  23         0.04986450
  24         0.05826943
  25         0.01573368
  26         0.00317708
  27        -0.01408740
  28         0.01134095
  29         0.00030995
  30         0.00327851
  31         0.22379187
  32         0.15958417
  33        -0.06219566
  34        -0.02866276
  35         0.15945586
  36         0.12913228
  37        -0.00494251
  38         0.00502706
Sym=     6a  
Ene=    -0.5630
Spin= Alpha
Occup=    2.00000
   1         0.00038360
   2         0.00449927
   3        -0.00504559
   4        -0.27738795
   5         0.08307607
   6        -0.14535885
   7        -0.16410514
   8         0.06690486
   9        -0.07374407
  10         0.00997695
  11        -0.00143049
  12        -0.00319533
  13         0.00897087
  14         0.01426544
  15         0.01395751
  16        -0.03080831
  17         0.06017555
  18         0.12230806
  19        -0.02345871
  20         0.24422780
  21         0.21358948
  22        -0.01417939
  23         0.10556384
  24         0.09401252
  25         0.00634514
  26        -0.00286732
  27        -0.00581155
  28         0.02533783
  29         0.02350977
  30        -0.00129402
  31        -0.08635408
  32        -0.05290663
  33         0.18756582
  34         0.13639902
  35         0.18085331
  36         0.15424711
  37        -0.14106966
  38        -0.11739152
Sym=     7a  
Ene=    -0.5077
Spin= Alpha
Occup=    2.00000
   1        -0.02881257
   2         0.06523546
   3         0.08246373
   4         0.14256357
   5         0.20924821
   6         0.23646699
   7         0.09400619
   8         0.15401884
   9         0.12076552
  10        -0.01155957
  11        -0.00592525
  12         0.01035285
  13         0.00009538
  14        -0.01552713
  15         0.00995476
  16        -0.00653543
  17         0.02688964
  18        -0.02353057
  19        -0.09402084
  20         0.29092831
  21        -0.21576289
  22        -0.05166177
  23         0.14644008
  24        -0.09233957
  25        -0.01098439
  26        -0.01673975
  27         0.02201711
  28         0.02129756
  29        -0.00447746
  30        -0.01511100
  31         0.02821555
  32         0.01943452
  33        -0.15013759
  34        -0.11618683
  35         0.00828758
  36         0.01162009
  37        -0.20021875
  38        -0.21210478
Sym=     8a  
Ene=    -0.0719
Spin= Alpha
Occup=    1.00000
   1         0.00615245
   2         0.00188430
   3        -0.11345162
   4        -0.07084035
   5         0.46678224
   6        -0.05050242
   7        -0.09428364
   8         0.63217712
   9        -0.08675843
  10         0.00387401
  11        -0.00039393
  12        -0.00115305
  13         0.00050023
  14         0.01013165
  15         0.00155714
  16         0.00594958
  17        -0.04183978
  18         0.12289850
  19         0.11374756
  20        -0.18449647
  21         0.01946681
  22         0.15244170
  23        -0.14122677
  24        -0.01224354
  25         0.00469963
  26         0.00978375
  27        -0.01509128
  28        -0.02768300
  29        -0.00491811
  30        -0.03577533
  31        -0.02955879
  32        -0.02945343
  33         0.02965312
  34         0.05794002
  35        -0.10541766
  36        -0.22779382
  37         0.15366849
  38         0.25551365
Sym=     9a  
Ene=    -0.1704
Spin= Alpha
Occup=    1.00000
   1         0.02423028
   2        -0.05932545
   3        -0.02422396
   4         0.11172038
   5         0.07071026
   6        -0.12656962
   7        -0.03536510
   8         0.08974771
   9        -0.02704665
  10         0.00061131
  11        -0.00063549
  12         0.00496125
  13        -0.00049550
  14        -0.04284033
  15        -0.00298857
  16        -0.07315568
  17         0.14882961
  18         0.33397996
  19        -0.37998459
  20        -0.10103057
  21         0.20587034
  22        -0.38670122
  23        -0.09524339
  24         0.22179036
  25        -0.01536586
  26         0.00976886
  27        -0.00933228
  28        -0.00480785
  29         0.01409110
  30        -0.00573696
  31         0.15360142
  32         0.25061483
  33        -0.11044416
  34        -0.16795356
  35        -0.09835810
  36        -0.11388297
  37        -0.03999464
  38        -0.00652676
Sym=    10a  
Ene=     0.2413
Spin= Alpha
Occup=    0.00000
   1         0.06289346
   2        -0.10269582
   3        -0.68379910
   4        -0.08148353
   5         0.02210159
   6         0.06197977
   7        -0.13210713
   8         0.05757462
   9         0.51843922
  10         0.00136930
  11         0.00995277
  12        -0.00680385
  13        -0.00521688
  14        -0.00395392
  15         0.00513571
  16         0.08838259
  17        -0.05368230
  18        -1.70734351
  19        -0.16407881
  20         0.14017664
  21        -0.08765657
  22        -0.74681229
  23         0.42282359
  24        -0.05833230
  25         0.00833872
  26         0.01401089
  27        -0.00281479
  28        -0.00066357
  29         0.00088625
  30        -0.00672971
  31        -0.01131066
  32         0.84482963
  33        -0.01206615
  34         0.39635645
  35        -0.01599422
  36         0.84284955
  37         0.06183182
  38         1.49318887
Sym=    11a  
Ene=     0.2878
Spin= Alpha
Occup=    0.00000
   1         0.12136538
   2        -0.10147569
   3        -2.20970327
   4         0.04554480
   5        -0.00414771
   6         0.12735273
   7         0.15029813
   8         0.00533449
   9         0.33964285
  10         0.00629670
  11         0.00509268
  12         0.00877764
  13         0.00049322
  14         0.00538769
  15         0.00163353
  16        -0.07805599
  17         0.05371625
  18         1.31395291
  19         0.10222996
  20         0.01894528
  21        -0.01869025
  22         0.44723367
  23         0.02521419
  24        -0.25500877
  25         0.00550243
  26        -0.01194549
  27        -0.00932885
  28         0.00027366
  29        -0.00541935
  30         0.00199213
  31         0.02541146
  32         1.11234931
  33         0.04558935
  34         1.45209333
  35        -0.00761794
  36        -0.82989511
  37        -0.00764960
  38        -0.60534271
Sym=    12a  
Ene=     0.2921
Spin= Alpha
Occup=    0.00000
   1        -0.00852844
   2        -0.01377021
   3         0.34523137
   4         0.08152700
   5        -0.00854050
   6        -0.09907099
   7         0.20906628
   8        -0.23252699
   9        -0.36868373
  10        -0.00323010
  11         0.00170613
  12        -0.00346312
  13        -0.01292411
  14         0.00807038
  15         0.01689618
  16        -0.03371537
  17         0.02568296
  18         0.68542506
  19         0.03478088
  20         0.31651559
  21         0.09989522
  22         0.18319499
  23         1.07788870
  24         0.27795288
  25        -0.00311714
  26         0.00339026
  27        -0.00969103
  28        -0.00462349
  29        -0.00854839
  30        -0.00405561
  31        -0.03059459
  32        -0.70573917
  33         0.00978838
  34        -0.02714061
  35        -0.05975725
  36        -1.59641569
  37         0.08467551
  38         0.97314860
Sym=    13a  
Ene=     0.3423
Spin= Alpha
Occup=    0.00000
   1        -0.01130347
   2        -0.02130545
   3         0.35679793
   4         0.34057599
   5         0.03455002
   6         0.01563997
   7         1.63133368
   8         0.23051653
   9         0.39145197
  10         0.00432521
  11        -0.00211850
  12        -0.00679718
  13         0.00039317
  14         0.00282615
  15        -0.00271235
  16         0.03976399
  17        -0.03399074
  18        -0.94995410
  19        -0.05192771
  20        -0.05360965
  21         0.02685860
  22        -0.75553090
  23        -0.27258462
  24         0.23367614
  25        -0.00439644
  26        -0.00005188
  27        -0.00018826
  28         0.00136206
  29        -0.02166498
  30        -0.00474745
  31        -0.00624132
  32        -1.54604395
  33        -0.00162325
  34         1.77612386
  35        -0.04589686
  36         0.75847065
  37        -0.02129370
  38         0.05071886
Sym=    14a  
Ene=     0.4575
Spin= Alpha
Occup=    0.00000
   1        -0.07156367
   2         0.06103794
   3         1.98338030
   4        -0.05464869
   5         0.00360351
   6         0.21794014
   7        -0.35207118
   8        -0.05942899
   9         2.39431812
  10         0.02369186
  11        -0.00345724
  12        -0.00566745
  13         0.00221246
  14         0.01376486
  15         0.00337319
  16         0.07401610
  17        -0.01152215
  18        -2.29746838
  19         0.11869273
  20         0.04042018
  21         0.17738985
  22         0.40077345
  23         0.09839832
  24         2.26218090
  25         0.00090387
  26        -0.01646762
  27         0.01201688
  28         0.00452531
  29         0.00711161
  30        -0.00926834
  31        -0.00351727
  32         0.95264879
  33         0.07108613
  34         0.17387270
  35        -0.03908486
  36        -0.75038460
  37        -0.10054219
  38         0.06618090
Sym=    15a  
Ene=     0.6947
Spin= Alpha
Occup=    0.00000
   1        -0.02347402
   2        -0.21454313
   3         0.11529614
   4        -0.08270197
   5        -0.07080491
   6        -0.53422569
   7         0.19204537
   8         0.00835443
   9         1.26521547
  10         0.03757009
  11        -0.00186643
  12        -0.09627051
  13         0.00419829
  14         0.00108165
  15        -0.01474156
  16        -0.01390777
  17        -0.14366695
  18        -0.39546955
  19         0.15248036
  20        -0.20838115
  21         0.55851363
  22        -0.26911537
  23         0.10904484
  24        -0.61579006
  25         0.02919492
  26         0.02912011
  27        -0.09283986
  28        -0.00844605
  29        -0.00478223
  30         0.02012630
  31         0.09713027
  32         0.19356716
  33         0.12193271
  34         0.13758388
  35         0.08459532
  36         0.10168503
  37         0.20729679
  38        -0.42860211
Sym=    16a  
Ene=     0.7552
Spin= Alpha
Occup=    0.00000
   1         0.01145028
   2        -0.09607255
   3         0.52439879
   4        -0.16849048
   5        -0.31279966
   6         0.05613840
   7         0.38818287
   8         0.00162908
   9        -0.02568066
  10        -0.02160203
  11        -0.00897049
  12         0.03250437
  13        -0.01757834
  14         0.06197483
  15        -0.02094682
  16        -0.00019710
  17        -0.01556379
  18        -0.00618314
  19         0.04466755
  20        -0.60230832
  21        -0.25030489
  22        -0.04326321
  23         1.05327166
  24         0.68461668
  25        -0.02125097
  26         0.01714809
  27        -0.01124525
  28        -0.08899454
  29        -0.05830754
  30         0.01638909
  31        -0.19049900
  32        -0.01278776
  33         0.16644421
  34        -0.06251155
  35        -0.44313262
  36        -0.04833912
  37         0.35979454
  38        -0.14186298
Sym=    17a  
Ene=     0.7978
Spin= Alpha
Occup=    0.00000
   1         0.00170119
   2        -0.12664152
   3         0.37446545
   4         0.21278902
   5         0.06189991
   6        -0.01254559
   7        -0.52286379
   8        -0.12506482
   9        -0.07751836
  10        -0.03306308
  11        -0.00301022
  12         0.01808016
  13        -0.01639543
  14        -0.00819187
  15        -0.01566128
  16         0.03357933
  17        -0.32798765
  18         0.09567221
  19         0.88181798
  20        -0.03531090
  21        -0.34710745
  22        -0.90183385
  23         0.13180555
  24         0.29994255
  25        -0.02221189
  26        -0.01385293
  27        -0.06390117
  28        -0.00849947
  29         0.00585462
  30         0.01768083
  31         0.15680584
  32         0.10073452
  33        -0.25111505
  34        -0.28304499
  35         0.14596796
  36         0.05196073
  37         0.13848219
  38         0.12950577
Sym=    18a  
Ene=     0.8355
Spin= Alpha
Occup=    0.00000
   1        -0.01639812
   2        -0.09730324
   3         0.00800975
   4         0.16562882
   5        -1.00443371
   6         0.12736622
   7        -0.28187743
   8         1.16860976
   9        -0.37404143
  10        -0.02952627
  11         0.02359716
  12        -0.05460503
  13        -0.00669663
  14        -0.00510192
  15        -0.02360184
  16         0.00342161
  17        -0.14960754
  18         0.35620287
  19         0.03716931
  20         0.14300963
  21         0.15695946
  22         0.02583986
  23        -0.38369054
  24        -0.29904195
  25        -0.01473558
  26        -0.02518057
  27         0.01763711
  28         0.02754931
  29         0.00925520
  30         0.04394670
  31        -0.10406731
  32        -0.01328895
  33        -0.16010063
  34        -0.08713276
  35         0.09039755
  36        -0.15183918
  37        -0.20460323
  38         0.35263452
Sym=    19a  
Ene=     0.8710
Spin= Alpha
Occup=    0.00000
   1        -0.07686081
   2        -0.29048490
   3         0.75663361
   4         0.00217289
   5         0.27806354
   6         0.51445179
   7         0.02055698
   8        -0.41059464
   9        -1.04954558
  10        -0.10275104
  11         0.08101078
  12        -0.15154405
  13        -0.01973010
  14         0.01537152
  15        -0.01560087
  16         0.02471485
  17        -0.15618330
  18         0.42439084
  19         0.08678923
  20        -0.35901335
  21         0.58040361
  22        -0.15316949
  23         0.43588505
  24        -0.61474358
  25        -0.03800952
  26        -0.02040273
  27         0.09565261
  28         0.02107567
  29         0.00779951
  30         0.00000030
  31        -0.48945199
  32        -0.20619990
  33        -0.41756161
  34        -0.28042440
  35         0.07582417
  36        -0.02416261
  37        -0.12575648
  38         0.17171910
Sym=    20a  
Ene=     0.9162
Spin= Alpha
Occup=    0.00000
   1         0.00631894
   2         0.23647049
   3        -0.06965728
   4         0.56864203
   5        -0.01319712
   6         0.11482815
   7        -1.77677662
   8        -0.22187939
   9         0.42094928
  10         0.04109511
  11        -0.00129043
  12         0.02488838
  13        -0.03637936
  14        -0.12842115
  15        -0.03385575
  16         0.02416718
  17         0.27596401
  18        -0.79041525
  19        -0.33000993
  20        -0.46123985
  21         0.06921890
  22         0.90151069
  23         0.96382151
  24         0.42140581
  25         0.01091120
  26         0.02628735
  27         0.05354228
  28        -0.05387895
  29         0.07551728
  30         0.02835953
  31         0.51815643
  32         0.52704983
  33        -0.26826671
  34        -0.27979664
  35         0.08622495
  36        -0.54933698
  37         0.13073619
  38         0.49247770
Sym=    21a  
Ene=     1.0730
Spin= Alpha
Occup=    0.00000
   1         0.04455128
   2         0.59445938
   3        -1.53148200
   4        -0.25885353
   5        -0.04692214
   6         0.09072868
   7         0.94689542
   8         0.23286483
   9        -0.38085708
  10         0.09971100
  11        -0.03766615
  12         0.06621433
  13         0.02017691
  14         0.02043041
  15        -0.04382490
  16         0.00588424
  17         0.50854671
  18        -0.76309438
  19         0.32844857
  20        -0.59273884
  21        -0.00439664
  22        -1.05079825
  23         0.73793654
  24        -0.43297283
  25         0.03955861
  26        -0.03638384
  27         0.08452261
  28         0.13515414
  29         0.02572247
  30         0.02585671
  31         0.17486977
  32        -0.44547352
  33         0.32019473
  34         0.47579762
  35         0.40553027
  36        -0.09766674
  37        -0.68332684
  38         1.72950649
Sym=    22a  
Ene=     1.1236
Spin= Alpha
Occup=    0.00000
   1        -0.01046510
   2        -0.13315694
   3         0.46421765
   4        -0.88795384
   5        -0.09293551
   6         0.22671181
   7         1.65549444
   8         0.16460491
   9        -0.17590619
  10        -0.00653308
  11         0.00022868
  12        -0.02895833
  13        -0.01427807
  14        -0.17140180
  15        -0.04647645
  16         0.03697480
  17        -0.36356937
  18         0.56396236
  19        -0.18543799
  20        -0.00424367
  21        -0.07316756
  22        -0.06064471
  23        -0.00088236
  24         0.24983683
  25        -0.01866902
  26        -0.00431157
  27        -0.01228724
  28        -0.00298433
  29         0.12093062
  30         0.06654362
  31         0.51591386
  32        -1.44871290
  33        -0.42621994
  34         1.19215130
  35         0.40707905
  36        -0.56330239
  37         0.34835011
  38        -0.41492202
Sym=    23a  
Ene=     1.1401
Spin= Alpha
Occup=    0.00000
   1         0.02398843
   2         0.60218926
   3        -1.58651469
   4        -0.08098882
   5        -0.06762679
   6         0.62920991
   7         0.36520871
   8         0.18298331
   9        -1.15329352
  10         0.14318110
  11        -0.02066691
  12        -0.02592776
  13         0.00498703
  14         0.00950363
  15         0.01591789
  16         0.03121009
  17         0.29877527
  18        -0.20200459
  19         0.37482827
  20         0.35885510
  21         0.58082468
  22        -1.03401777
  23        -0.47980520
  24        -1.29365369
  25        -0.03704563
  26         0.01039853
  27         0.15033843
  28        -0.11435404
  29        -0.04278889
  30        -0.01468297
  31         0.39865933
  32        -0.48577665
  33         0.29685846
  34        -0.10433061
  35        -0.42453921
  36         1.54223998
  37         0.38095248
  38         0.04350230
Sym=    24a  
Ene=     1.1925
Spin= Alpha
Occup=    0.00000
   1         0.01599510
   2        -0.02253221
   3        -0.60659660
   4         0.36240475
   5         0.07170362
   6         0.42483849
   7        -0.32713674
   8        -0.05850818
   9        -0.96773777
  10         0.12400691
  11        -0.04278819
  12        -0.08877545
  13         0.02707792
  14         0.09657922
  15        -0.02968876
  16         0.02232835
  17        -1.05163394
  18         2.58001502
  19        -0.33516082
  20        -0.08752029
  21        -0.02175401
  22         0.34165644
  23         0.09223523
  24        -0.50007024
  25        -0.04968746
  26        -0.04484288
  27        -0.04846942
  28         0.04715608
  29        -0.02925427
  30         0.06821093
  31        -0.03509357
  32         0.06074768
  33         0.72008312
  34        -0.96674546
  35         0.61131137
  36        -0.93078119
  37         0.29504810
  38        -0.47371299
Sym=    25a  
Ene=     1.2091
Spin= Alpha
Occup=    0.00000
   1         0.00874593
   2        -1.66117795
   3         3.94575947
   4         0.00103978
   5         0.04304066
   6         0.27766905
   7        -0.16662900
   8        -0.11386483
   9         0.00269812
  10        -0.04039881
  11        -0.14822769
  12        -0.11803708
  13         0.02643416
  14        -0.02547635
  15         0.02735371
  16        -0.01870090
  17         0.40312517
  18        -1.46580172
  19         0.07866160
  20        -0.02626533
  21        -0.04986094
  22         0.08369723
  23        -0.01984241
  24         0.65526954
  25         0.02928533
  26         0.03936566
  27        -0.01988454
  28         0.03279308
  29         0.00562998
  30        -0.04173755
  31         0.50191029
  32        -1.19136436
  33         0.35861457
  34        -1.20458976
  35        -0.17849256
  36         0.14872413
  37        -0.28381607
  38         0.17451546
Sym=    26a  
Ene=     1.3753
Spin= Alpha
Occup=    0.00000
   1        -0.02597786
   2        -0.38360834
   3         2.77157101
   4         0.09171784
   5        -0.01687960
   6        -0.00143132
   7         0.49992282
   8         0.25480403
   9         1.38772794
  10        -0.10750368
  11         0.02090794
  12         0.03462375
  13        -0.05909636
  14         0.07187014
  15        -0.19652219
  16         0.10859528
  17         1.53898745
  18        -5.03426719
  19         0.05594870
  20         0.13934395
  21        -0.11781486
  22        -1.19555927
  23        -0.22764707
  24         1.42111456
  25         0.04952622
  26         0.14770909
  27         0.08916920
  28        -0.03273805
  29        -0.01220909
  30         0.27492775
  31        -0.33358449
  32         0.05602370
  33         0.11064902
  34         0.12612665
  35         0.56468039
  36         0.76958459
  37         0.62433508
  38         0.37902133
Sym=    27a  
Ene=     1.8089
Spin= Alpha
Occup=    0.00000
   1        -0.00926892
   2         0.00322165
   3         0.81523656
   4         0.04836087
   5        -0.16505892
   6         0.08464903
   7         0.53749815
   8         0.18537188
   9         0.43869170
  10        -0.10627031
  11         0.09084871
  12         0.01220221
  13        -0.00764922
  14        -0.09695626
  15         0.60569019
  16         0.06182625
  17         0.61303622
  18        -2.06865227
  19         0.05642427
  20        -0.10480081
  21        -0.05162883
  22        -0.78445462
  23        -0.10138088
  24         0.45747743
  25        -0.06635146
  26         0.19361376
  27        -0.03924462
  28         0.03017523
  29         0.21287891
  30        -0.50079743
  31        -0.19239949
  32        -0.09097092
  33         0.15907499
  34         0.19559787
  35         0.45142108
  36         0.37498907
  37         0.36913484
  38         0.21534989
Sym=    28a  
Ene=     1.8922
Spin= Alpha
Occup=    0.00000
   1         0.01283840
   2         0.14649542
   3        -0.57763082
   4         0.01661297
   5         0.01911668
   6        -0.01577473
   7        -0.16856861
   8        -0.02593102
   9         0.01449118
  10        -0.24183810
  11         0.23528840
  12         0.00810402
  13         0.49126081
  14        -0.03123400
  15        -0.09100325
  16        -0.01370440
  17        -0.13222794
  18         0.46243538
  19         0.01267637
  20        -0.00201085
  21         0.01455544
  22         0.18996537
  23         0.12865995
  24        -0.09670862
  25        -0.67016656
  26         0.63056971
  27         0.01550371
  28         0.23960944
  29         0.00083946
  30         0.10436647
  31         0.14007819
  32         0.15552419
  33         0.07612181
  34         0.04366880
  35        -0.14788495
  36        -0.13636485
  37        -0.04718129
  38         0.05354504
Sym=    29a  
Ene=     1.9938
Spin= Alpha
Occup=    0.00000
   1         0.00778334
   2         0.03733085
   3        -0.30108613
   4        -0.09524334
   5         0.00344622
   6        -0.00835517
   7        -0.21885166
   8        -0.00393060