[Molden Format]
[N_Atoms]
                     6
[Atoms] (AU)
C1          1      6          -0.03002775      0.13895723     -0.11255209
C2          2      6           0.02348363     -0.00466573      2.48630133
H3          3      1           1.62115069      0.27781809     -1.34270521
H4          4      1          -1.76967371     -0.02210224     -1.18440664
H5          5      1           1.44480523      1.25361030      3.33078025
H6          6      1           1.39985998     -1.64361575      2.51065801
[Charge] (Mulliken)
 -6.954894070163320E-002
 -0.665033572481780     
  0.179184801360730     
  0.212305652195958     
  0.173461874855820     
  0.169630184770602     
[GTO] (AU)
   1
   s   6
  3.047524880E+03  1.834737132E-03
  4.573695180E+02  1.403732281E-02
  1.039486850E+02  6.884262227E-02
  2.921015530E+01  2.321844432E-01
  9.286662960E+00  4.679413484E-01
  3.163926960E+00  3.623119853E-01
   s   3
  7.868272350E+00 -1.193324198E-01
  1.881288540E+00 -1.608541517E-01
  5.442492580E-01  1.143456438E+00
   s   1
  1.687144782E-01  1.000000000E+00
   p   3
  7.868272350E+00  6.899906659E-02
  1.881288540E+00  3.164239610E-01
  5.442492580E-01  7.443082909E-01
   p   1
  1.687144782E-01  1.000000000E+00
   d   1
  8.000000000E-01  1.000000000E+00
 
   2
   s   6
  3.047524880E+03  1.834737132E-03
  4.573695180E+02  1.403732281E-02
  1.039486850E+02  6.884262227E-02
  2.921015530E+01  2.321844432E-01
  9.286662960E+00  4.679413484E-01
  3.163926960E+00  3.623119853E-01
   s   3
  7.868272350E+00 -1.193324198E-01
  1.881288540E+00 -1.608541517E-01
  5.442492580E-01  1.143456438E+00
   s   1
  1.687144782E-01  1.000000000E+00
   p   3
  7.868272350E+00  6.899906659E-02
  1.881288540E+00  3.164239610E-01
  5.442492580E-01  7.443082909E-01
   p   1
  1.687144782E-01  1.000000000E+00
   d   1
  8.000000000E-01  1.000000000E+00
 
   3
   s   3
  1.873113696E+01  3.349460434E-02
  2.825394365E+00  2.347269535E-01
  6.401216923E-01  8.137573261E-01
   s   1
  1.612777588E-01  1.000000000E+00
 
   4
   s   3
  1.873113696E+01  3.349460434E-02
  2.825394365E+00  2.347269535E-01
  6.401216923E-01  8.137573261E-01
   s   1
  1.612777588E-01  1.000000000E+00
 
   5
   s   3
  1.873113696E+01  3.349460434E-02
  2.825394365E+00  2.347269535E-01
  6.401216923E-01  8.137573261E-01
   s   1
  1.612777588E-01  1.000000000E+00
 
   6
   s   3
  1.873113696E+01  3.349460434E-02
  2.825394365E+00  2.347269535E-01
  6.401216923E-01  8.137573261E-01
   s   1
  1.612777588E-01  1.000000000E+00
 
[MO]
Sym=     1a  
Ene=   -11.3500
Spin= Alpha
Occup=    2.00000
   1         0.99580581
   2         0.02647621
   3        -0.01116116
   4        -0.00001751
   5        -0.00024279
   6        -0.00054066
   7         0.00021323
   8         0.00023099
   9        -0.00000945
  10        -0.00167984
  11        -0.00252659
  12        -0.00134031
  13         0.00010451
  14         0.00003797
  15         0.00000248
  16         0.00288959
  17        -0.00003304
  18         0.00217175
  19         0.00006872
  20        -0.00001553
  21         0.00015486
  22        -0.00049641
  23         0.00023251
  24        -0.00148687
  25        -0.00012755
  26        -0.00001383
  27        -0.00013743
  28         0.00001362
  29        -0.00001569
  30        -0.00001138
  31        -0.00017113
  32         0.00214844
  33        -0.00015326
  34         0.00235906
  35        -0.00001017
  36         0.00031857
  37         0.00005274
  38         0.00064370
Sym=     2a  
Ene=   -11.1450
Spin= Alpha
Occup=    2.00000
   1        -0.00335408
   2         0.00000240
   3         0.00498703
   4        -0.00006391
   5        -0.00000359
   6        -0.00045644
   7         0.00133031
   8         0.00021476
   9         0.00200283
  10        -0.00009258
  11        -0.00012154
  12        -0.00090506
  13         0.00002076
  14        -0.00005644
  15         0.00010515
  16         0.99577520
  17         0.02798382
  18        -0.01502741
  19         0.00239358
  20         0.00007214
  21        -0.00192292
  22        -0.00390895
  23        -0.00012025
  24         0.00242543
  25        -0.00172604
  26        -0.00201423
  27        -0.00120263
  28         0.00007673
  29        -0.00001655
  30         0.00000213
  31        -0.00023309
  32        -0.00049216
  33        -0.00000627
  34         0.00053949
  35         0.00011354
  36         0.00337080
  37         0.00012181
  38         0.00313801
Sym=     3a  
Ene=    -1.0586
Spin= Alpha
Occup=    2.00000
   1        -0.17264760
   2         0.35045752
   3         0.27220884
   4         0.01225821
   5        -0.00736869
   6         0.07890629
   7         0.01469265
   8        -0.00342608
   9        -0.00489606
  10         0.00628878
  11        -0.01552107
  12         0.01837766
  13         0.00104501
  14         0.00174204
  15        -0.00213857
  16        -0.12779395
  17         0.22597271
  18         0.18887618
  19         0.04724169
  20        -0.00176121
  21        -0.11983273
  22         0.02400419
  23        -0.00107085
  24        -0.02055326
  25        -0.00117623
  26        -0.00145768
  27         0.01345622
  28        -0.00239974
  29        -0.00135034
  30         0.00227274
  31         0.10237458
  32         0.01017393
  33         0.09903547
  34         0.01977548
  35         0.06793612
  36         0.00785019
  37         0.08579800
  38         0.01563917
Sym=     4a  
Ene=    -0.8228
Spin= Alpha
Occup=    2.00000
   1         0.09362604
   2        -0.19693301
   3        -0.22119404
   4         0.05261602
   5        -0.00426726
   6         0.29111563
   7         0.01480573
   8        -0.00172304
   9         0.11242263
  10        -0.02619067
  11         0.01031515
  12         0.00277684
  13        -0.00504910
  14         0.00148167
  15        -0.00263445
  16        -0.12512104
  17         0.21915804
  18         0.24394067
  19         0.10124628
  20        -0.00501030
  21         0.00789505
  22         0.04493898
  23        -0.00413549
  24        -0.00179563
  25         0.01007906
  26         0.00465001
  27        -0.00459604
  28        -0.00132595
  29         0.00325106
  30         0.00543419
  31        -0.14528226
  32        -0.06097380
  33        -0.17448893
  34        -0.07001010
  35         0.12397714
  36         0.04900871
  37         0.11874139
  38         0.04773637
Sym=     5a  
Ene=    -0.6567
Spin= Alpha
Occup=    2.00000
   1         0.00710855
   2        -0.02105821
   3        -0.03380470
   4         0.43619590
   5         0.03981090
   6        -0.13891226
   7         0.19374905
   8         0.01696004
   9        -0.05824931
  10         0.00470625
  11        -0.00036240
  12        -0.00013689
  13        -0.00145383
  14        -0.03345810
  15        -0.00293324
  16         0.02375278
  17        -0.05164340
  18        -0.03182007
  19         0.12986757
  20         0.00866746
  21         0.06533993
  22         0.03640582
  23         0.00175651
  24        -0.00764185
  25         0.01123169
  26         0.00172086
  27        -0.00905878
  28         0.00124884
  29        -0.00945548
  30         0.00106364
  31         0.25099057
  32         0.17748729
  33        -0.18639477
  34        -0.11813777
  35         0.04616533
  36         0.03950470
  37         0.03294081
  38         0.02710844
Sym=     6a  
Ene=    -0.5560
Spin= Alpha
Occup=    2.00000
   1         0.04698448
   2        -0.10893382
   3        -0.17795815
   4        -0.14511695
   5        -0.00501702
   6        -0.35647827
   7        -0.09218035
   8        -0.00079799
   9        -0.19958653
  10         0.01670270
  11         0.00171556
  12        -0.00437789
  13         0.00251477
  14         0.01746379
  15         0.00490656
  16        -0.03033670
  17         0.04111802
  18         0.20282916
  19         0.14687402
  20         0.03487125
  21         0.33433444
  22         0.08182298
  23         0.01662089
  24         0.07858419
  25         0.02633194
  26         0.01315356
  27        -0.03308216
  28         0.00756626
  29         0.01980830
  30         0.00781036
  31        -0.00117092
  32         0.00573081
  33         0.15393068
  34         0.12121970
  35         0.20546795
  36         0.17686855
  37         0.08544192
  38         0.07935274
Sym=     7a  
Ene=    -0.4954
Spin= Alpha
Occup=    2.00000
   1        -0.01526976
   2         0.04536786
   3         0.03211198
   4         0.00481453
   5         0.20394527
   6         0.07885755
   7        -0.00540133
   8         0.15706568
   9         0.04231799
  10        -0.00145172
  11        -0.00443108
  12         0.00438605
  13         0.00637115
  14        -0.00582198
  15         0.02034600
  16        -0.01184300
  17         0.02286039
  18         0.03987847
  19        -0.03595169
  20         0.36635714
  21        -0.00105695
  22        -0.01096203
  23         0.16660847
  24         0.00323419
  25        -0.00407775
  26        -0.00817533
  27         0.00717227
  28         0.04042172
  29         0.00853597
  30        -0.01668199
  31         0.00527270
  32         0.01146150
  33        -0.02352004
  34        -0.01926283
  35         0.15991336
  36         0.17369556
  37        -0.24576398
  38        -0.27954737
Sym=     8a  
Ene=    -0.2757
Spin= Alpha
Occup=    2.00000
   1        -0.01956148
   2         0.05668167
   3        -0.03165988
   4        -0.05783103
   5        -0.01393603
   6         0.07918974
   7         0.05570491
   8        -0.00668194
   9        -0.01351982
  10         0.00167900
  11         0.00164476
  12        -0.00686585
  13        -0.00199225
  14         0.04088137
  15         0.00325397
  16         0.08711983
  17        -0.18200658
  18        -0.31286158
  19         0.40801085
  20         0.06342804
  21        -0.20879118
  22         0.40793190
  23         0.05938534
  24        -0.24766901
  25         0.02141663
  26        -0.01150748
  27         0.00511360
  28         0.00343966
  29        -0.02012419
  30        -0.00040109
  31        -0.12038312
  32        -0.24957627
  33         0.09922704
  34         0.18669428
  35         0.07380270
  36         0.07520290
  37         0.05270061
  38         0.03442833
Sym=     9a  
Ene=     0.0422
Spin= Alpha
Occup=    0.00000
   1         0.00793407
   2        -0.01448077
   3        -0.06660009
   4        -0.04333507
   5         0.44809365
   6        -0.01692701
   7        -0.07149966
   8         0.66923962
   9        -0.02647727
  10         0.00162162
  11         0.00064336
  12        -0.00090085
  13        -0.00305624
  14         0.00387356
  15        -0.01265317
  16         0.00418779
  17        -0.01137571
  18         0.01022298
  19         0.02240208
  20        -0.10671923
  21         0.00757898
  22         0.02870707
  23        -0.10563551
  24        -0.00180918
  25         0.00331706
  26         0.00691648
  27        -0.00859098
  28        -0.02234259
  29        -0.00215463
  30        -0.02078741
  31        -0.00943021
  32        -0.00181999
  33         0.00736180
  34         0.02993916
  35        -0.11953799
  36        -0.27296734
  37         0.15615832
  38         0.39581713
Sym=    10a  
Ene=     0.2361
Spin= Alpha
Occup=    0.00000
   1         0.11035401
   2        -0.15136171
   3        -1.72560148
   4        -0.07132823
   5        -0.01192422
   6         0.20671282
   7        -0.08844862
   8        -0.02865846
   9         0.84703800
  10         0.00991841
  11         0.00640191
  12        -0.00391331
  13        -0.00020081
  14        -0.00333790
  15         0.00245084
  16         0.03276540
  17        -0.00609511
  18        -0.83632322
  19        -0.05663323
  20         0.03949802
  21        -0.08088438
  22        -0.28835334
  23         0.10915642
  24        -0.11854630
  25         0.00655293
  26         0.00045193
  27         0.00413359
  28         0.00298551
  29        -0.00172414
  30        -0.00305219
  31         0.02334069
  32         1.57810323
  33         0.02612651
  34         1.16696201
  35        -0.00422568
  36         0.40474370
  37        -0.00021713
  38         0.52233950
Sym=    11a  
Ene=     0.2719
Spin= Alpha
Occup=    0.00000
   1         0.05554919
   2        -0.02269090
   3        -1.28150244
   4         0.24055591
   5         0.01284461
   6         0.06124164
   7         0.68748089
   8         0.08966071
   9        -0.13163664
  10         0.00618606
  11        -0.00231983
  12         0.01405714
  13         0.00256333
  14         0.00815897
  15        -0.00297223
  16        -0.10455227
  17         0.03862811
  18         1.97963763
  19         0.12522849
  20        -0.04921069
  21         0.03345786
  22         0.53304002
  23        -0.19270777
  24        -0.08899786
  25        -0.00294362
  26        -0.01429191
  27        -0.00963939
  28        -0.00338760
  29        -0.00840263
  30         0.00380433
  31         0.01749111
  32        -0.30916455
  33         0.04410267
  34         1.43118525
  35        -0.01886907
  36        -0.98151573
  37        -0.01469293
  38        -1.19536534
Sym=    12a  
Ene=     0.3123
Spin= Alpha
Occup=    0.00000
   1        -0.01935382
   2        -0.05390068
   3         0.78205394
   4         0.30463306
   5         0.02470397
   6        -0.04718474
   7         1.35843089
   8        -0.03299818
   9         0.36030777
  10        -0.00210982
  11        -0.00025117
  12        -0.01508984
  13        -0.00694082
  14        -0.00283466
  15         0.01129001
  16         0.06519731
  17         0.00072041
  18        -1.60283321
  19        -0.12335775
  20         0.12848411
  21         0.04477458
  22        -0.94414607
  23         0.43478219
  24         0.30955565
  25        -0.00415028
  26         0.01129307
  27         0.00294486
  28         0.00568029
  29        -0.01150655
  30        -0.00959744
  31        -0.02674781
  32        -1.49258817
  33        -0.01016831
  34         1.29504083
  35        -0.04530722
  36         0.37276764
  37        -0.00341574
  38         1.21676192
Sym=    13a  
Ene=     0.3438
Spin= Alpha
Occup=    0.00000
   1         0.01859386
   2        -0.02169047
   3        -0.35262269
   4        -0.08992770
   5        -0.00727428
   6        -0.02965967
   7        -0.50276808
   8        -0.41945948
   9        -0.40298388
  10        -0.00460489
  11        -0.00090923
  12         0.00709882
  13        -0.01573036
  14         0.00562542
  15         0.02710589
  16        -0.04943843
  17         0.01493401
  18         1.12729856
  19         0.05636375
  20         0.31594171
  21         0.03575868
  22         0.46142278
  23         1.26049118
  24         0.03931732
  25         0.00052064
  26        -0.00150609
  27        -0.00837013
  28         0.00796713
  29         0.00308620
  30        -0.01209176
  31        -0.01893597
  32         0.39506843
  33         0.00747193
  34        -0.52752587
  35        -0.01178690
  36        -1.84597677
  37         0.05033847
  38         0.90056978
Sym=    14a  
Ene=     0.4783
Spin= Alpha
Occup=    0.00000
   1        -0.07000067
   2         0.09116611
   3         2.28827736
   4        -0.03585855
   5         0.01105669
   6         0.09233659
   7        -0.20833436
   8        -0.17387535
   9         2.71130429
  10         0.04299389
  11        -0.00393124
  12        -0.01619529
  13         0.00222645
  14         0.01706171
  15         0.00354655
  16         0.06782814
  17         0.02390303
  18        -2.65984692
  19         0.12467223
  20         0.01879252
  21         0.22431868
  22         0.47428614
  23        -0.02111113
  24         2.36653048
  25         0.01684273
  26        -0.00776081
  27        -0.01443281
  28         0.00365445
  29         0.00506341
  30        -0.00403230
  31         0.05301892
  32         0.84234739
  33         0.12828569
  34         0.29235278
  35        -0.01499013
  36        -0.72034829
  37        -0.06410628
  38        -0.14585329
Sym=    15a  
Ene=     0.6704
Spin= Alpha
Occup=    0.00000
   1        -0.00303184
   2        -0.23863563
   3        -0.23856215
   4        -0.08699334
   5        -0.05878912
   6        -0.65354578
   7         0.23070355
   8         0.01998203
   9         1.22701287
  10         0.03735648
  11        -0.01119550
  12        -0.06811647
  13         0.00562525
  14        -0.00461385
  15        -0.00513745
  16        -0.03461804
  17        -0.14801350
  18        -0.08374215
  19         0.10915225
  20        -0.11679108
  21         0.38893232
  22        -0.20310174
  23         0.04337640
  24        -0.72674945
  25         0.02608828
  26         0.02448248
  27        -0.09353811
  28        -0.00843710
  29        -0.00676419
  30         0.01782363
  31         0.12815156
  32         0.18314635
  33         0.13089973
  34         0.25672259
  35         0.08555131
  36        -0.00356083
  37         0.20522396
  38        -0.42002495
Sym=    16a  
Ene=     0.7598
Spin= Alpha
Occup=    0.00000
   1        -0.00227882
   2        -0.08120905
   3         0.33672267
   4        -0.03848099
   5        -0.98865412
   6         0.03988924
   7         0.24525790
   8         0.88684490
   9        -0.07636121
  10        -0.01850844
  11         0.00378239
  12        -0.00755500
  13        -0.01667944
  14         0.03934402
  15        -0.01976697
  16         0.00089965
  17        -0.02662092
  18         0.01841060
  19        -0.02490342
  20        -0.24567475
  21        -0.05467000
  22        -0.00318458
  23         0.42122504
  24         0.28877441
  25        -0.01267519
  26        -0.00600304
  27         0.00903702
  28        -0.03992032
  29        -0.02710034
  30         0.04555857
  31        -0.16913686
  32        -0.08306371
  33         0.07454256
  34        -0.00644506
  35        -0.23395420
  36        -0.17593290
  37         0.10390177
  38         0.19166427
Sym=    17a  
Ene=     0.8101
Spin= Alpha
Occup=    0.00000
   1        -0.00826391
   2        -0.00086271
   3        -0.00449944
   4         0.45960062
   5        -0.43069311
   6        -0.00498855
   7        -1.32102357
   8         0.58890526
   9         0.08211242
  10        -0.00632505
  11         0.01202909
  12        -0.01546170
  13         0.00055303
  14        -0.08394543
  15        -0.01497427
  16         0.02212855
  17        -0.10113301
  18        -0.10885632
  19         0.27505508
  20         0.35438456
  21         0.01401841
  22         0.02432061
  23        -0.59998434
  24        -0.13216512
  25         0.00341358
  26        -0.01865975
  27        -0.00800005
  28         0.05428235
  29         0.04237985
  30         0.03348373
  31         0.30712209
  32         0.33808807
  33        -0.36109887
  34        -0.31551371
  35         0.39523557
  36        -0.21225659
  37        -0.20681280
  38         0.37389900
Sym=    18a  
Ene=     0.8463
Spin= Alpha
Occup=    0.00000
   1         0.01003477
   2        -0.02461186
   3         0.47743358
   4         0.27543200
   5         0.21451248
   6        -0.00101343
   7        -0.87642997
   8        -0.57020745
   9         0.23707426
  10        -0.00885939
  11        -0.01701439
  12         0.05301221
  13        -0.02562510
  14        -0.02556125
  15        -0.01359595
  16         0.03038529
  17        -0.10013390
  18        -0.41458523
  19         0.52195657
  20        -0.43821401
  21        -0.36191256
  22        -0.34898244
  23         0.95460270
  24         0.68615930
  25        -0.00750119
  26         0.00171691
  27        -0.05078425
  28        -0.08670004
  29        -0.01329731
  30        -0.00169086
  31         0.25738624
  32         0.33098546
  33        -0.16467406
  34        -0.35551908
  35        -0.20238662
  36         0.06511992
  37         0.44892650
  38        -0.00174267
Sym=    19a  
Ene=     0.8562
Spin= Alpha
Occup=    0.00000
   1        -0.08825105
   2        -0.69858645
   3         1.84552810
   4        -0.07178487
   5         0.11326951
   6         0.29841499
   7         0.22249859
   8        -0.13048867
   9        -0.59797381
  10        -0.14289826
  11         0.08613989
  12        -0.18365156
  13        -0.01824479
  14         0.04840267
  15         0.00526995
  16         0.02342324
  17        -0.37445179
  18         0.34229313
  19         0.35159111
  20        -0.11546403
  21         0.40127357
  22        -0.34515959
  23         0.00819127
  24        -0.14285174
  25        -0.03828702
  26        -0.01975322
  27         0.01323194
  28         0.01502874
  29        -0.01281932
  30         0.00027374
  31        -0.58959729
  32        -0.26707215
  33        -0.41714314
  34        -0.36304219
  35         0.03603310
  36        -0.05040520
  37        -0.07227143
  38        -0.17112676
Sym=    20a  
Ene=     0.9248
Spin= Alpha
Occup=    0.00000
   1        -0.03524432
   2         0.04447897
   3         0.21475963
   4         0.34340605
   5         0.05429237
   6         0.24147281
   7        -1.29743381
   8        -0.30994629
   9        -0.01290128
  10         0.00119108
  11         0.05058510
  12        -0.08809409
  13        -0.02114551
  14        -0.12139061
  15        -0.00840063
  16         0.01023259
  17         0.12681047
  18        -0.12439284
  19        -0.64090333
  20        -0.38879320
  21         0.47322662
  22         1.26336625
  23         0.72529947
  24        -0.12492777
  25         0.00235609
  26         0.02266479
  27         0.08450364
  28        -0.04966125
  29         0.06870349
  30         0.00311576
  31         0.15596525
  32         0.32284121
  33        -0.32789438
  34        -0.27829291
  35        -0.05171468
  36        -0.43032766
  37         0.13826316
  38        -0.03055656
Sym=    21a  
Ene=     1.0713
Spin= Alpha
Occup=    0.00000
   1        -0.00533324
   2         0.01918043
   3         0.19865351
   4        -0.96200960
   5        -0.09792642
   6         0.24034582
   7         1.90563832
   8         0.17073409
   9        -0.22244397
  10         0.00890971
  11        -0.00130124
  12        -0.02029158
  13        -0.00084644
  14        -0.17940854
  15        -0.03158209
  16         0.03396043
  17        -0.03440173
  18        -0.14464453
  19         0.09059185
  20        -0.07886868
  21         0.02710886
  22        -0.54467475
  23         0.09879837
  24         0.07484759
  25        -0.00027867
  26        -0.00526447
  27         0.01917688
  28        -0.00142127
  29         0.11324532
  30         0.02885151
  31         0.61385391
  32        -1.65076886
  33        -0.47500281
  34         1.40490548
  35         0.24819622
  36        -0.14560965
  37         0.14505264
  38         0.08460958
Sym=    22a  
Ene=     1.1152
Spin= Alpha
Occup=    0.00000
   1         0.02728576
   2         0.54649099
   3        -1.55820638
   4         0.06894494
   5         0.04419285
   6         0.32515975
   7         0.28782245
   8         0.02532150
   9        -0.81269187
  10         0.12342792
  11        -0.02196066
  12        -0.03258420
  13        -0.00351820
  14         0.06421984
  15        -0.08794582
  16         0.01775442
  17         0.30910170
  18        -0.23753994
  19         0.35658822
  20        -0.69153696
  21         0.28467169
  22        -1.01064795
  23         0.92656761
  24        -0.88177241
  25         0.00828956
  26        -0.03221599
  27         0.11225700
  28         0.10105938
  29        -0.00277646
  30         0.06005186
  31         0.09214744
  32        -0.15025828
  33         0.41826830
  34        -0.16656562
  35         0.41585409
  36        -0.11857996
  37        -0.55018738
  38         1.64023947
Sym=    23a  
Ene=     1.1383
Spin= Alpha
Occup=    0.00000
   1         0.01620320
   2        -1.13847073
   3         2.41631354
   4         0.11329577
   5        -0.02184271
   6         0.62374438
   7        -0.16359904
   8         0.03399665
   9        -0.83347506
  10         0.09025848
  11        -0.14705850
  12        -0.14782291
  13         0.03244074
  14         0.01240017
  15         0.03324067
  16         0.00638057
  17        -0.09656521
  18        -0.00833329
  19         0.02087515
  20         0.22475309
  21         0.18743201
  22        -0.06861397
  23        -0.34974407
  24        -0.16614092
  25        -0.01483125
  26         0.01811606
  27         0.01143861
  28        -0.02706974
  29        -0.01873442
  30        -0.02303762
  31         0.55325238
  32        -1.15073531
  33         0.66849311
  34        -1.43810648
  35        -0.12689145
  36         0.40057161
  37         0.18191644
  38        -0.32609566
Sym=    24a  
Ene=     1.1745
Spin= Alpha
Occup=    0.00000
   1         0.00116546
   2         1.22109119
   3        -3.22057013
   4        -0.00043264
   5        -0.09021666
   6         0.35208338
   7         0.29777406
   8         0.20099041
   9        -1.04959735
  10         0.12415605
  11         0.07215230
  12        -0.03927291
  13         0.00661193
  14         0.03134941
  15         0.06772555
  16         0.03134090
  17        -0.06380470
  18         0.90302500
  19         0.31104057
  20         0.44328027
  21         0.61237927
  22        -0.89990349
  23        -0.57032958
  24        -1.58064943
  25        -0.03791139
  26        -0.01989232
  27         0.10813684
  28        -0.09968243
  29        -0.02396087
  30        -0.05638519
  31        -0.04857648
  32         0.24148301
  33         0.03565242
  34         0.37986187
  35        -0.36698729
  36         1.34443520
  37         0.45496189
  38        -0.23024131
Sym=    25a  
Ene=     1.2476
Spin= Alpha
Occup=    0.00000
   1         0.00259739
   2        -0.42011968
   3         1.73517577
   4        -0.11685842
   5        -0.02146079
   6        -0.19036953
   7        -0.01307776
   8        -0.00179151
   9         0.77168953
  10        -0.09289094
  11        -0.03646131
  12         0.06569113
  13        -0.00706340
  14        -0.02586845
  15         0.02604076
  16        -0.02517913
  17         1.42784033
  18        -3.59218321
  19         0.45137706
  20         0.07750232
  21         0.15258948
  22        -0.58658061
  23        -0.14050166
  24         0.43818012
  25         0.08371777
  26         0.06522791
  27         0.09245469
  28        -0.02841123
  29        -0.01533715
  30        -0.05629815
  31         0.15883974
  32        -0.22977414
  33        -0.26067279
  34         0.09944942
  35        -0.66843114
  36         1.27868728
  37        -0.42876484
  38         0.84154210
Sym=    26a  
Ene=     1.5349
Spin= Alpha
Occup=    0.00000
   1        -0.02916122
   2        -0.29856310
   3         2.91955941
   4         0.06733461
   5         0.01369349
   6         0.07361939
   7         0.77327996
   8         0.08671444
   9         1.44935370
  10        -0.12716978
  11         0.08417719
  12         0.00055604
  13        -0.08555073
  14         0.04320629
  15        -0.23336125
  16         0.12361912
  17         1.47631536
  18        -5.34243107
  19         0.01957965
  20         0.17873895
  21        -0.07964214
  22        -1.34629498
  23        -0.25006747
  24         1.44103801
  25         0.00525482
  26         0.19399208
  27         0.06956247
  28        -0.08189471
  29         0.03009972
  30         0.27767932
  31        -0.31373872
  32        -0.05696360
  33         0.15967131
  34         0.23894689
  35         0.63500117
  36         0.80291217
  37         0.76497055
  38         0.40500833
Sym=    27a  
Ene=     1.7666
Spin= Alpha
Occup=    0.00000
   1        -0.01080770
   2        -0.06262466
   3         1.15116453
   4         0.05141443
   5        -0.14179766
   6         0.06086998
   7         0.53696669
   8         0.13114485
   9         0.59959032
  10        -0.12892339
  11         0.05921026
  12         0.05785574
  13         0.13201308
  14        -0.07929573
  15         0.62582719
  16         0.06364761
  17         0.66434502
  18        -2.43712229
  19         0.05583508
  20        -0.20182631
  21        -0.06701884
  22        -0.79177198
  23        -0.04217401
  24         0.59693817
  25        -0.04728362
  26         0.20554175
  27        -0.06022251
  28         0.10766030
  29         0.16699608
  30        -0.42569659
  31        -0.17772297
  32        -0.09021921
  33         0.15682629
  34         0.17993478
  35         0.48052380
  36         0.27668778
  37         0.28626392
  38         0.38836509
Sym=    28a  
Ene=     1.8678
Spin= Alpha
Occup=    0.00000
   1         0.00635299
   2         0.07886683
   3        -0.29418908
   4         0.02100752
   5         0.01941197
   6        -0.00164178
   7        -0.18034619
   8        -0.07038181
   9        -0.01867523
  10        -0.19747809
  11         0.20233024
  12        -0.00506818
  13         0.89554786
  14         0.00801376
  15        -0.15549211
  16        -0.00848196
  17        -0.07383768
  18         0.28740415
  19         0.01872251
  20         0.00407362
  21         0.01436701
  22         0.14764289
  23         0.25704012
  24        -0.01425092
  25        -0.21872296
  26         0.18521860
  27         0.02060213
  28         0.15589409
  29         0.00908573
  30         0.12185563
  31         0.07832599
  32         0.10710398
  33         0.01938600
  34        -0.02636306
  35        -0.18100153
  36        -0.16698149
  37         0.03634148
  38         0.12010901
Sym=    29a  
Ene=     1.9923
Spin= Alpha
Occup=    0.00000
   1         0.02531005
   2         0.17491708
   3        -1.04640972
   4        -0.06568864
   5         0.01017417
   6        -0.00730158
   7        -0.33885131
   8        -0.01460706