3
Step =      0  Time =       0.00000000  Total energy =     -76.442325272046  Kinetic energy =       0.021009045942  Potential energy =     -76.463334317987
H       0.76144500      0.42044500     -0.21141100      0.00259791      0.00321906     -0.00155297
O       0.00092400     -0.10982000      0.05115800     -0.00020953     -0.00025885      0.00012487
H      -0.76824900      0.42206600     -0.18106700      0.00072685      0.00088915     -0.00042917
3
Step =      1  Time =       8.26827492  Total energy =     -76.442315591541  Kinetic energy =       0.020626610341  Potential energy =     -76.462942201882
H       0.77280685      0.43452451     -0.21820334      0.00256376      0.00319300     -0.00154013
O       0.00000724     -0.11095194      0.05170404     -0.00020744     -0.00025707      0.00012399
H      -0.76506389      0.42595142     -0.18294258      0.00072752      0.00088672     -0.00042805
3
Step =      2  Time =      16.53654983  Total energy =     -76.442304841034  Kinetic energy =       0.019612820226  Potential energy =     -76.461917661261
H       0.78387986      0.44838619     -0.22488830      0.00247090      0.00312261     -0.00150544
O      -0.00089122     -0.11206954      0.05224302     -0.00020149     -0.00025249      0.00012174
H      -0.76188266      0.42982547     -0.18481278      0.00072524      0.00088389     -0.00042668
3
Step =      3  Time =      24.80482475  Total energy =     -76.442294197847  Kinetic energy =       0.018111423206  Potential energy =     -76.460405621053
H       0.79442914      0.46184973     -0.23137708      0.00232901      0.00301398     -0.00145193
O      -0.00175595     -0.11316142      0.05276933     -0.00019232     -0.00024549      0.00011829
H      -0.75871750      0.43368611     -0.18667640      0.00072035      0.00088048     -0.00042500
3
Step =      4  Time =      33.07309966  Total energy =     -76.442284404614  Kinetic energy =       0.016270436511  Potential energy =     -76.458554841125
H       0.80426052      0.47476084     -0.23759383      0.00214690      0.00287281     -0.00138244
O      -0.00257414     -0.11421773      0.05327811     -0.00018049     -0.00023640      0.00011381
H      -0.75557908      0.43753035     -0.18853183      0.00071319      0.00087626     -0.00042288
3
Step =      5  Time =      41.34137458  Total energy =     -76.442275874379  Kinetic energy =       0.014229490798  Potential energy =     -76.456505365177
H       0.81321620      0.48698900     -0.24347452      0.00193235      0.00270422     -0.00129952
O      -0.00333536     -0.11523006      0.05376525     -0.00016651     -0.00022552      0.00010846
H      -0.75247655      0.44135406     -0.19037696      0.00070411      0.00087095     -0.00042022
3
Step =      6  Time =      49.60964949  Total energy =     -76.442268744712  Kinetic energy =       0.012112864024  Potential energy =     -76.454381608736
H       0.82117006      0.49842479     -0.24896560      0.00169206      0.00251271     -0.00120539
O      -0.00403125     -0.11619124      0.05422722     -0.00015083     -0.00021313      0.00010237
H      -0.74941755      0.44515180     -0.19220910      0.00069344      0.00086423     -0.00041688
3
Step =      7  Time =      57.87792441  Total energy =     -76.442262967859  Kinetic energy =       0.010026583275  Potential energy =     -76.452289551134
H       0.82802302      0.50897713     -0.25402260      0.00143174      0.00230218     -0.00110199
O      -0.00465521     -0.11709515      0.05466104     -0.00013381     -0.00019945      0.00009564
H      -0.74640838      0.44891676     -0.19402495      0.00068148      0.00085580     -0.00041271
3
Step =      8  Time =      66.14619932  Total energy =     -76.442258408040  Kinetic energy =       0.008058122743  Potential energy =     -76.450316530783
H       0.83369891      0.51857065     -0.25860885      0.00115622      0.00207596     -0.00099097
O      -0.00520218     -0.11793656      0.05506416     -0.00011578     -0.00018465      0.00008838
H      -0.74345406      0.45264074     -0.19582059      0.00066849      0.00084534     -0.00040756
3
Step =      9  Time =      74.41447424  Total energy =     -76.442254903692  Kinetic energy =       0.006277565454  Potential energy =     -76.448532469146
H       0.83814079      0.52714337     -0.26269431      0.00086953      0.00183687     -0.00087372
O      -0.00566834     -0.11871101      0.05543444     -0.00009700     -0.00016891      0.00008066
H      -0.74055854      0.45631414     -0.19759145      0.00065470      0.00083254     -0.00040132
3
Step =     10  Time =      82.68274915  Total energy =     -76.442252298135  Kinetic energy =       0.004739433770  Potential energy =     -76.446991731904
H       0.84130793      0.53464469     -0.26625458      0.00057509      0.00158733     -0.00075145
O      -0.00605097     -0.11941464      0.05577003     -0.00007769     -0.00015235      0.00007255
H      -0.73772491      0.45992608     -0.19933242      0.00064028      0.00081711     -0.00039384
3
Step =     11  Time =      90.95102407  Total energy =     -76.442250454084  Kinetic energy =       0.003484684066  Potential energy =     -76.445735138151
H       0.84317330      0.54103373     -0.26927005      0.00027583      0.00132941     -0.00062517
O      -0.00634821     -0.12004415      0.05606933     -0.00005805     -0.00013508      0.00006411
H      -0.73495561      0.46346451     -0.20103781      0.00062534      0.00079881     -0.00038500
3
Step =     12  Time =      99.21929898  Total energy =     -76.442249259653  Kinetic energy =       0.002542563463  Potential energy =     -76.444791823116
H       0.84372165      0.54627801     -0.27172528     -0.00002574      0.00106490     -0.00049578
O      -0.00655899     -0.12059670      0.05633102     -0.00003824     -0.00011721      0.00005538
H      -0.73225269      0.46691632     -0.20270149      0.00060995      0.00077742     -0.00037472
3
Step =     13  Time =     107.48757390  Total energy =     -76.442248632628  Kinetic energy =       0.001932155654  Potential energy =     -76.444180788282
H       0.84294804      0.55035243     -0.27360847     -0.00032738      0.00079543     -0.00036407
O      -0.00668288     -0.12106985      0.05655393     -0.00001840     -0.00009883      0.00004641
H      -0.72961807      0.47026755     -0.20431691      0.00059411      0.00075276     -0.00036291
3
Step =     14  Time =     115.75584881  Total energy =     -76.442248522888  Kinetic energy =       0.001663528766  Potential energy =     -76.443912051654
H       0.84085686      0.55323862     -0.27491114     -0.00062701      0.00052248     -0.00023078
O      -0.00672001     -0.12146152      0.05673712      0.00000135     -0.00008001      0.00003724
H      -0.72705379      0.47350355     -0.20587719      0.00057775      0.00072469     -0.00034949
3
Step =     15  Time =     124.02412373  Total energy =     -76.442248912627  Kinetic energy =       0.001738445630  Potential energy =     -76.443987358257
H       0.83746120      0.55492450     -0.27562794     -0.00092268      0.00024748     -0.00009661
O      -0.00667107     -0.12177002      0.05687980      0.00002089     -0.00006085      0.00002791
H      -0.72456229      0.47660917     -0.20737523      0.00056077      0.00069313     -0.00033444
3
Step =     16  Time =     132.29239864  Total energy =     -76.442249816328  Kinetic energy =       0.002150625340  Potential energy =     -76.444400441668
H       0.83278271      0.55540423     -0.27575658     -0.00121240     -0.00002813      0.00003771
O      -0.00653720     -0.12199403      0.05698137      0.00004011     -0.00004143      0.00001847
H      -0.72214662      0.47956896     -0.20880377      0.00054299      0.00065802     -0.00031772
3
Step =     17  Time =     140.56067356  Total energy =     -76.442251280045  Kinetic energy =       0.002885557709  Potential energy =     -76.445136837755
H       0.82685175      0.55467835     -0.27529794     -0.00149413     -0.00030282      0.00017145
O      -0.00632007     -0.12213259      0.05704144      0.00005889     -0.00002185      0.00000896
H      -0.71981071      0.48236739     -0.21015549      0.00052419      0.00061938     -0.00029932
3
Step =     18  Time =     148.82894847  Total energy =     -76.442253378842  Kinetic energy =       0.003919895071  Potential energy =     -76.446173273913
H       0.81970797      0.55275433     -0.27425629     -0.00176562     -0.00057492      0.00030377
O      -0.00602184     -0.12218523      0.05705982      0.00007712     -0.00000221     -0.00000056
H      -0.71755959      0.48498899     -0.21142308      0.00050409      0.00057723     -0.00027927
3
Step =     19  Time =     157.09722339  Total energy =     -76.442256213048  Kinetic energy =       0.005220457560  Potential energy =     -76.447476670608
H       0.81140125      0.54964733     -0.27263973     -0.00202439     -0.00084255      0.00043375
O      -0.00564522     -0.12215192      0.05703656      0.00009465      0.00001737     -0.00001004
H      -0.71539953      0.48741861     -0.21259934      0.00048240      0.00053167     -0.00025760
3
Step =     20  Time =     165.36549830  Total energy =     -76.442259901266  Kinetic energy =       0.006742919770  Potential energy =     -76.449002821036
H       0.80199303      0.54538137     -0.27046068     -0.00226760     -0.00110351      0.00056030
O      -0.00519359     -0.12203326      0.05697200      0.00011133      0.00003673     -0.00001940
H      -0.71333825      0.48964151     -0.21367726      0.00045876      0.00048281     -0.00023435
3
Step =     21  Time =     173.63377322  Total energy =     -76.442264568463  Kinetic energy =       0.008430296110  Potential energy =     -76.450694864573
H       0.79155802      0.53999081     -0.26773669     -0.00249197     -0.00135521      0.00068216
O      -0.00467103     -0.12183051      0.05686682      0.00012697      0.00005571     -0.00002856
H      -0.71138500      0.49164358     -0.21465006      0.00043283      0.00043082     -0.00020959
3
Step =     22  Time =     181.90204813  Total energy =     -76.442270327565  Kinetic energy =       0.010211424121  Potential energy =     -76.452481751686
H       0.78018636      0.53352226     -0.26449130     -0.00269369     -0.00159460      0.00079782
O      -0.00408249     -0.12154576      0.05672208      0.00014137      0.00007411     -0.00003742
H      -0.70955064      0.49341147     -0.21551132      0.00040423      0.00037587     -0.00018340
3
Step =     23  Time =     190.17032305  Total energy =     -76.442277250847  Kinetic energy =       0.011999774012  Potential energy =     -76.454277024859
H       0.76798619      0.52603684     -0.26075519     -0.00286830     -0.00181806      0.00090550
O      -0.00343396     -0.12118203      0.05653932      0.00015426      0.00009168     -0.00004587
H      -0.70784765      0.49493276     -0.21625498      0.00037260      0.00031821     -0.00015589
3
Step =     24  Time =     198.43859796  Total energy =     -76.442285320893  Kinetic energy =       0.013693099393  Potential energy =     -76.455978420286
H       0.75508656      0.51761282     -0.25656747     -0.00301064     -0.00202133      0.00100312
O      -0.00273263     -0.12074352      0.05632065      0.00016534      0.00010814     -0.00005377
H      -0.70629009      0.49619601     -0.21687544      0.00033759      0.00025806     -0.00012714
3
Step =     25  Time =     206.70687288  Total energy =     -76.442294349811  Kinetic energy =       0.015174688879  Potential energy =     -76.457469038690
H       0.74164076      0.50834862     -0.25197711     -0.00311481     -0.00219944      0.00108824
O      -0.00198709     -0.12023573      0.05606879      0.00017427      0.00012317     -0.00006095
H      -0.70489347      0.49719099     -0.21736760      0.00029889      0.00019572     -0.00009730
3
Step =     26  Time =     214.97514779  Total energy =     -76.442303877873  Kinetic energy =       0.016317255556  Potential energy =     -76.458621133429
H       0.72782962      0.49836599     -0.24704452     -0.00317411     -0.00234671      0.00115808
O      -0.00120762     -0.11966571      0.05578725      0.00018064      0.00013639     -0.00006724
H      -0.70367453      0.49790870     -0.21772693      0.00025626      0.00013147     -0.00006650
3
Step =     27  Time =     223.24342271  Total energy =     -76.442313101424  Kinetic energy =       0.016990718332  Potential energy =     -76.459303819756
H       0.71386487      0.48781308     -0.24184305     -0.00318120     -0.00245681      0.00120953
O      -0.00040633     -0.11904224      0.05548036      0.00018401      0.00014738     -0.00007243
H      -0.70265101      0.49834149     -0.21794951      0.00020951      0.00006565     -0.00003487
3
Step =     28  Time =     231.51169762  Total energy =     -76.442320836171  Kinetic energy =       0.017075148833  Potential energy =     -76.459395985004
H       0.69999169      0.47686707     -0.23646025     -0.00312828     -0.00252291      0.00123925
O       0.00040260     -0.11837601      0.05515340      0.00018389      0.00015570     -0.00007631
H      -0.70184118      0.49848322     -0.21803210      0.00015856     -0.00000140     -0.00000259
3
Step =     29  Time =     239.77997254  Total energy =     -76.442325495510  Kinetic energy =       0.016479664435  Potential energy =     -76.458805159946
H       0.68649004      0.46573572     -0.23099863     -0.00300750     -0.00253808      0.00124387
O       0.00120282     -0.11767972      0.05481261      0.00017978      0.00016090     -0.00007864
H      -0.70126347      0.49832927     -0.21797217      0.00010346     -0.00006931      0.00003018
3
Step =     30  Time =     248.04824745  Total energy =     -76.442325200271  Kinetic energy =       0.015166731010  Potential energy =     -76.457491931282
H       0.67367375      0.45465694     -0.22557545     -0.00281163     -0.00249581      0.00122019
O       0.00197583     -0.11696806      0.05446521      0.00017123      0.00016253     -0.00007923
H      -0.70093582      0.49787669     -0.21776800      0.00004438     -0.00013770      0.00006325
3
Step =     31  Time =     256.31652237  Total energy =     -76.442318215143  Kinetic energy =       0.013178948876  Potential energy =     -76.455497164019
H       0.66188613      0.44389547     -0.22032104     -0.00253495     -0.00239081      0.00116563
O       0.00270124     -0.11625748      0.05411930      0.00015786      0.00016024     -0.00007789
H      -0.70087514      0.49712431     -0.21741868     -0.00001837     -0.00020614      0.00009642
3
Step =     32  Time =     264.58479729  Total energy =     -76.442303676375  Kinetic energy =       0.010661985033  Potential energy =     -76.452965661408
H       0.65149104      0.43373551     -0.21537525     -0.00217442     -0.00222003      0.00107872
O       0.00335725     -0.11556581      0.05378361      0.00013945      0.00015382     -0.00007452
H      -0.70109660      0.49607280     -0.21692422     -0.00008433     -0.00027421      0.00012948
3
Step =     33  Time =     272.85307220  Total energy =     -76.442282355604  Kinetic energy =       0.007873853801  Potential energy =     -76.450156209405
H       0.64285832      0.42446854     -0.21088144     -0.00173101     -0.00198374      0.00095959
O       0.00392155     -0.11491142      0.05346716      0.00011602      0.00014326     -0.00006912
H      -0.70161305      0.49472480     -0.21628560     -0.00015287     -0.00034143      0.00016221
3
Step =     34  Time =     281.12134712  Total energy =     -76.442257188083  Kinetic energy =       0.005169450851  Potential energy =     -76.447426638935
H       0.63634334      0.41637628     -0.20697811     -0.00121093     -0.00168659      0.00081054
O       0.00437255     -0.11431221      0.05317874      0.00008792      0.00012880     -0.00006181
H      -0.70243436      0.49308502     -0.21550480     -0.00022329     -0.00040733      0.00019435
3
Step =     35  Time =     289.38962203  Total energy =     -76.442233159686  Kinetic energy =       0.002953034124  Potential energy =     -76.445186193810
H       0.63226175      0.40970959     -0.20378859     -0.00062640     -0.00133820      0.00063630
O       0.00469092     -0.11378429      0.05292624      0.00005585      0.00011103     -0.00005288
H      -0.70356700      0.49116038     -0.21458492     -0.00029475     -0.00047139      0.00022565
3
Step =     36  Time =     297.65789695  Total energy =     -76.442216154528  Kinetic energy =       0.001601899579  Potential energy =     -76.443818054108
H       0.63086190      0.40466600     -0.20140997      0.00000432     -0.00095304      0.00044399
O       0.00486132     -0.11334059      0.05271600      0.00002091      0.00009082     -0.00004275
H      -0.70501368      0.48896001     -0.21353015     -0.00036639     -0.00053309      0.00025587
3
Step =     37  Time =     305.92617186  Total energy =     -76.442210930917  Kinetic energy =       0.001379233040  Potential energy =     -76.443590163957
H       0.63229953      0.40136972     -0.19990332      0.00065796     -0.00054941      0.00024260
O       0.00487392     -0.11298958      0.05255216     -0.00001551      0.00006927     -0.00003196
H      -0.70677322      0.48649540     -0.21234588     -0.00043732     -0.00059191      0.00028472
3
Step =     38  Time =     314.19444678  Total energy =     -76.442219161560  Kinetic energy =       0.002365051750  Potential energy =     -76.444584213311
H       0.63661953      0.39985826     -0.19928702      0.00130839     -0.00014751      0.00004209
O       0.00472562     -0.11273446      0.05243629     -0.00005182      0.00004761     -0.00002113
H      -0.70884054      0.48378035     -0.21103864     -0.00050666     -0.00064731      0.00031195
3
Step =     39  Time =     322.46272169  Total energy =     -76.442238677512  Kinetic energy =       0.004432277284  Potential energy =     -76.446670954796
H       0.64374898      0.40007888     -0.19953503      0.00192939      0.00023286     -0.00014780
O       0.00442042     -0.11257295      0.05236724     -0.00008645      0.00002706     -0.00001085
H      -0.71120689      0.48083093     -0.20961611     -0.00057362     -0.00069879      0.00033730
3
Step =     40  Time =     330.73099661  Total energy =     -76.442264393309  Kinetic energy =       0.007278206448  Potential energy =     -76.449542599757
H       0.65350318      0.40189596     -0.20058037      0.00249741      0.00057462     -0.00031861
O       0.00396911     -0.11249770      0.05234136     -0.00011796      0.00000864     -0.00000163
H      -0.71386019      0.47766542     -0.20808703     -0.00063750     -0.00074587      0.00036054
3
Step =     41  Time =     338.99927152  Total energy =     -76.442290340942  Kinetic energy =       0.010498679046  Potential energy =     -76.452789019988
H       0.66560326      0.40510725     -0.20232313      0.00299382      0.00086501     -0.00046403
O       0.00338818     -0.11249735      0.05235301     -0.00014522     -0.00000687      0.00000616
H      -0.71678547      0.47430403     -0.20646114     -0.00069767     -0.00078813      0.00038146
3
Step =     42  Time =     347.26754644  Total energy =     -76.442311656611  Kinetic energy =       0.013676735462  Potential energy =     -76.455988392073
H       0.67970139      0.40946548     -0.20464101      0.00340604      0.00109632     -0.00058021
O       0.00269828     -0.11255781      0.05239523     -0.00016749     -0.00001901      0.00001226
H      -0.71996535      0.47076869     -0.20474900     -0.00075366     -0.00082523      0.00039988
3
Step =     43  Time =     355.53582135  Total energy =     -76.442325642237  Kinetic energy =       0.016457294982  Potential energy =     -76.458782937219
H       0.69540868      0.41470088     -0.20740039      0.00372766      0.00126568     -0.00066567
O       0.00192253     -0.11266367      0.05246034     -0.00018438     -0.00002761      0.00001662
H      -0.72338059      0.46708268     -0.20296186     -0.00080509     -0.00085689      0.00041568
3
Step =     44  Time =     363.80409627  Total energy =     -76.442331773937  Kinetic energy =       0.018591286891  Potential energy =     -76.460923060828
H       0.71232128      0.42054118     -0.21046617      0.00395772      0.00137429     -0.00072096
O       0.00108486     -0.11279943      0.05254065     -0.00019584     -0.00003277      0.00001926
H      -0.72701051      0.46327026     -0.20111145     -0.00085168     -0.00088295      0.00042877
3
Step =     45  Time =     372.07237118  Total energy =     -76.442331087010  Kinetic energy =       0.019947432086  Potential energy =     -76.462278519096
H       0.73004180      0.42672694     -0.21370937      0.00409947      0.00142623     -0.00074805
O       0.00020876     -0.11295042      0.05262884     -0.00020210     -0.00003474      0.00002030
H      -0.73083346      0.45935623     -0.19920975     -0.00089325     -0.00090333      0.00043912
3
Step =     46  Time =     380.34064610  Total energy =     -76.442325421846  Kinetic energy =       0.020499905577  Potential energy =     -76.462825327423
H       0.74819479      0.43302176     -0.21701219      0.00415904      0.00142741     -0.00074981
O      -0.00068370     -0.11310342      0.05271830     -0.00020355     -0.00003389      0.00001993
H      -0.73482713      0.45536546     -0.19726883     -0.00092967     -0.00091806      0.00044673
3
Step =     47  Time =     388.60892101  Total energy =     -76.442316755556  Kinetic energy =       0.020303292113  Potential energy =     -76.462620047669
H       0.76643659      0.43921783     -0.22027081      0.00414426      0.00138456     -0.00072955
O      -0.00157245     -0.11324698      0.05280328     -0.00020067     -0.00003063      0.00001836
H      -0.73896880      0.45132249     -0.19530056     -0.00096087     -0.00092728      0.00045166
3
Step =     48  Time =     396.87719593  Total energy =     -76.442306734938  Kinetic energy =       0.019464549347  Potential energy =     -76.461771284285
H       0.78446021      0.44513773     -0.22339629      0.00406365      0.00130457     -0.00069063
O      -0.00243975     -0.11337150      0.05287895     -0.00019402     -0.00002539      0.00001578
H      -0.74323547      0.44725106     -0.19331649     -0.00098679     -0.00093120      0.00045401
3
Step =     49  Time =     405.14547084  Total energy =     -76.442296522601  Kinetic energy =       0.018118092293  Potential energy =     -76.460414614894
H       0.80199666      0.45063379     -0.22631435      0.00392578      0.00119396     -0.00063628
O      -0.00327024     -0.11346914      0.05294134     -0.00018411     -0.00001854      0.00001238
H      -0.74760397      0.44317378     -0.19132762     -0.00100739     -0.00093013      0.00045393
3
Step =     50  Time =     413.41374576  Total energy =     -76.442286880637  Kinetic energy =       0.016406696824  Potential energy =     -76.458693577460
H       0.81881376      0.45558576     -0.22896424      0.00373874      0.00105865     -0.00056943
O      -0.00405086     -0.11353373      0.05298732     -0.00017147     -0.00001044      0.00000835
H      -0.75205093      0.43911172     -0.18934424     -0.00102263     -0.00092444      0.00045159
3
Step =     51  Time =     421.68202067  Total energy =     -76.442278271769  Kinetic energy =       0.014468565153  Potential energy =     -76.456746836921
H       0.83471352      0.45989782     -0.23129727      0.00350997      0.00090386     -0.00049264
O      -0.00477072     -0.11356047      0.05301442     -0.00015656     -0.00000138      0.00000383
H      -0.75655278      0.43508424     -0.18737586     -0.00103245     -0.00091455      0.00044718
3
Step =     52  Time =     429.95029559  Total energy =     -76.442270904217  Kinetic energy =       0.012429655424  Potential energy =     -76.454700559641
H       0.84952872      0.46349524     -0.23327520      0.00324609      0.00073403     -0.00040813
O      -0.00542084     -0.11354578      0.05302080     -0.00013979      0.00000839     -0.00000107
H      -0.76108568      0.43110870     -0.18543104     -0.00103679     -0.00090093      0.00044093
3
Step =     53  Time =     438.21857050  Total energy =     -76.442264794071  Kinetic energy =       0.010399945771  Potential energy =     -76.452664739842
H       0.86311932      0.46632115     -0.23486871      0.00295291      0.00055292     -0.00031777
O      -0.00599400     -0.11348707      0.05300510     -0.00012154      0.00001865     -0.00000622
H      -0.76562546      0.42720040     -0.18351742     -0.00103556     -0.00088406      0.00043304
3
Step =     54  Time =     446.48684542  Total energy =     -76.442259850515  Kinetic energy =       0.008472337945  Potential energy =     -76.450732188460
H       0.87536895      0.46833370     -0.23605591      0.00263548      0.00036366     -0.00022311
O      -0.00648445     -0.11338254      0.05296636     -0.00010214      0.00002926     -0.00001156
H      -0.77014760      0.42337248     -0.18164162     -0.00102868     -0.00086444      0.00042375
3
Step =     55  Time =     454.75512033  Total energy =     -76.442255942485  Kinetic energy =       0.006723146935  Potential energy =     -76.448979089419
H       0.88618176      0.46950346     -0.23682113      0.00229816      0.00016886     -0.00012547
O      -0.00688776     -0.11323103      0.05290397     -0.00008184      0.00004007     -0.00001701
H      -0.77462720      0.41963593     -0.17980925     -0.00101607     -0.00084254      0.00041329
3
Step =     56  Time =     463.02339525  Total energy =     -76.442252936479  Kinetic energy =       0.005213406724  Potential energy =     -76.447466343203
H       0.89547962      0.46981134     -0.23715390      0.00194475     -0.00002932     -0.00002593
O      -0.00720062     -0.11303192      0.05281755     -0.00006090      0.00005097     -0.00002251
H      -0.77903902      0.41599964     -0.17802499     -0.00099766     -0.00081883      0.00040187
3
Step =     57  Time =     471.29167016  Total energy =     -76.442250714250  Kinetic energy =       0.003990469046  Potential energy =     -76.446241183296
H       0.90319983      0.46924688     -0.23704806      0.00157856     -0.00022906      0.00007460
O      -0.00742071     -0.11278498      0.05270695     -0.00003953      0.00006189     -0.00002804
H      -0.78335753      0.41247053     -0.17629256     -0.00097340     -0.00079376      0.00038970
3
Step =     58  Time =     479.55994508  Total energy =     -76.442249180978  Kinetic energy =       0.003089558306  Potential energy =     -76.445338739285
H       0.90929324      0.46780691     -0.23650113      0.00120253     -0.00042880      0.00017533
O      -0.00754657     -0.11249033      0.05257220     -0.00001792      0.00007275     -0.00003354
H      -0.78755703      0.40905365     -0.17461485     -0.00094326     -0.00076773      0.00037695
3
Step =     59  Time =     487.82821999  Total energy =     -76.442248270296  Kinetic energy =       0.002535074133  Potential energy =     -76.444783344429
H       0.91372292      0.46549458     -0.23551383      0.00081935     -0.00062717      0.00027556
O      -0.00757749     -0.11214838      0.05241348      0.00000378      0.00008348     -0.00003898
H      -0.79161179      0.40575234     -0.17299395     -0.00090726     -0.00074110      0.00036381
3
Step =     60  Time =     496.09649491  Total energy =     -76.442247948319  Kinetic energy =       0.002341515070  Potential energy =     -76.444589463389
H       0.91646319      0.46231867     -0.23408973      0.00043154     -0.00082293      0.00037468
O      -0.00751346     -0.11175979      0.05223109      0.00002541      0.00009404     -0.00004434
H      -0.79549627      0.40256846     -0.17143123     -0.00086547     -0.00071420      0.00035043
3
Step =     61  Time =     504.36476982  Total energy =     -76.442248216393  Kinetic energy =       0.002513948058  Potential energy =     -76.444762164451
H       0.91749920      0.45829328     -0.23223509      0.00004156     -0.00101488      0.00047206
O      -0.00735514     -0.11132548      0.05202549      0.00004682      0.00010435     -0.00004958
H      -0.79918529      0.39950255     -0.16992745     -0.00081800     -0.00068731      0.00033693
3
Step =     62  Time =     512.63304474  Total energy =     -76.442249112879  Kinetic energy =       0.003047981427  Potential energy =     -76.445297094306
H       0.91682689      0.45343772     -0.22995885     -0.00034805     -0.00120178      0.00056708
O      -0.00710379     -0.11084661      0.05179722      0.00006786      0.00011437     -0.00005468
H      -0.80265435      0.39655401     -0.16848284     -0.00076502     -0.00066065      0.00032343
3
Step =     63  Time =     520.90131966  Total energy =     -76.442250713565  Kinetic energy =       0.003929218229  Potential energy =     -76.446179931795
H       0.91445349      0.44777677     -0.22727267     -0.00073461     -0.00138235      0.00065909
O      -0.00676135     -0.11032466      0.05154703      0.00008838      0.00012402     -0.00005959
H      -0.80587983      0.39372132     -0.16709717     -0.00070680     -0.00063443      0.00031003
3
Step =     64  Time =     529.16959457  Total energy =     -76.442253130541  Kinetic energy =       0.005132194293  Potential energy =     -76.447385324834
H       0.91039851      0.44134112     -0.22419127     -0.00111513     -0.00155513      0.00074735
O      -0.00633044     -0.10976138      0.05127578      0.00010821      0.00013321     -0.00006428
H      -0.80883935      0.39100223     -0.16576985     -0.00064362     -0.00060880      0.00029680
3
Step =     65  Time =     537.43786949  Total energy =     -76.442256509230  Kinetic energy =       0.006618831982  Potential energy =     -76.448875341213
H       0.90469521      0.43416821     -0.22073278     -0.00148625     -0.00171846      0.00083101
O      -0.00581444     -0.10915894      0.05098455      0.00012717      0.00014186     -0.00006869