[Molden Format]
made by pyscf v[2.13.1]
[Atoms] (AU)
O   1   8     0.21099695469856     0.00000000000000     2.15462460678861
N   2   7    -0.44776862100326     0.00000000000000    -0.03589262653049
H   3   1     1.18163474748449     0.00000000000000    -1.17386889907833
[GTO]
1 0
 s    8 1.00
                 11720  0.00070964594651845
                  1759  0.0054672722921914
                 400.8   0.027823118610189
                 113.7    0.10474773971146
                 37.03    0.28292084635691
                 13.27    0.44849523869833
                 5.025    0.27081688521277
                 1.013    0.01545029160744
 s    8 1.00
                 11720  -0.00031444341168873
                  1759  -0.0024821376810179
                 400.8  -0.012316355381583
                 113.7  -0.050538917343672
                 37.03   -0.13938490331632
                 13.27   -0.32507749481778
                 5.025   -0.22984830758785
                 1.013     1.0953793467883
 s    1 1.00
                0.3023                   1
 s    1 1.00
               0.07896                   1
 p    3 1.00
                  17.7   0.062679166281506
                 3.854    0.33353656587936
                 1.046    0.74123964163973
 p    1 1.00
                0.2753                   1
 p    1 1.00
               0.06856                   1
 d    1 1.00
                 1.185                   1
 d    1 1.00
                 0.332                   1

2 0
 s    8 1.00
                  9046  0.00069961741342552
                  1357  0.0053860546299287
                 309.3   0.027391021189057
                 87.73    0.10315059198201
                 28.56    0.27857066331743
                 10.21    0.44829484945412
                 3.838    0.27808592839527
                0.7466   0.015431561233271
 s    8 1.00
                  9046  -0.00030499009595337
                  1357  -0.0024080263785077
                 309.3   -0.01194444872518
                 87.73  -0.048925992909017
                 28.56   -0.13447272472496
                 10.21   -0.31511257770011
                 3.838   -0.24285783254964
                0.7466     1.0943822068542
 s    1 1.00
                0.2248                   1
 s    1 1.00
               0.06124                   1
 p    3 1.00
                 13.55   0.058905676772132
                 2.917    0.32046110671427
                0.7973    0.75304206179207
 p    1 1.00
                0.2185                   1
 p    1 1.00
               0.05611                   1
 d    1 1.00
                 0.817                   1
 d    1 1.00
                  0.23                   1

3 0
 s    3 1.00
                 13.01   0.033498726389998
                 1.962    0.23480080117413
                0.4446     0.8136829578829
 s    1 1.00
                 0.122                   1
 s    1 1.00
               0.02974                   1
 p    1 1.00
                 0.727                   1
 p    1 1.00
                 0.141                   1

[5d]
[7f]
[9g]

[MO]
 Sym= A
 Ene=               0
 Spin= Alpha
 Occup=    1.00000
   1    -0.0029527310309218
   2    -0.017555249265025
   3    -0.016139632340248
   4    -0.011650950910818
   5      0.51787610744093
   6    -4.3330768477255e-13
   7    -0.087611392839767
   8      0.36249153995814
   9    -2.6321272240968e-13
  10    -0.068715888379151
  11      0.12502569498004
  12    -2.8750030283915e-14
  13    -0.022497883376693
  14    -0.0007713729441005
  15    -0.0023073656740379
  16    2.1184303608618e-14
  17    -0.00071967244947467
  18    5.5764110008737e-15
  19    0.00099559848460889
  20    -0.0012865730911746
  21    2.4028021784244e-14
  22    -0.0015387605316527
  23    5.1905484387107e-15
  24    -0.00053712441210375
  25      0.12600425220964
  26      0.27210785973032
  27      0.16457178230935
  28     -0.37063962756771
  29    -3.6028889837016e-13
  30    -0.043838884367541
  31     -0.22579678088916
  32    -1.8753383449333e-13
  33    -0.032157565483771
  34    -0.075204913098776
  35    -1.5079448251274e-14
  36    -0.0039319537070887
  37    -0.010427892310732
  38     0.022766780263687
  39    -2.7554775166138e-14
  40    -0.010980530515126
  41    -1.6659653996611e-14
  42    -8.2761690018154e-05
  43    0.0022119227787151
  44    1.6403982257535e-15
  45    0.0006133972977184
  46    -1.0068778818618e-14
  47     -0.28229307339518
  48     -0.18936775027994
  49    -0.037989621574125
  50     0.003220813567939
  51    -1.0143218128401e-14
  52    -0.0095987722298313
  53    -0.018500340924394
  54    -2.8511363524344e-15
  55     0.018878392326634
 Sym= A
 Ene=               1
 Spin= Alpha
 Occup=    1.00000
   1    -0.0061140442442708
   2     0.076528629862753
   3      0.15579765168163
   4      0.12127808095611
   5    -0.019150586537508
   6    8.335555815913e-11
   7      0.42525811411862
   8    -0.020659995784625
   9    5.0615010363338e-11
  10      0.20398910060531
  11    -0.015632406232799
  12    5.6620325943696e-12
  13    0.0034153522132477
  14    -0.013762796612023
  15    -0.0031369641547253
  16    -4.0643827243628e-12
  17    -0.00085510421955218
  18    -1.0768841349076e-12
  19    0.0024347852666879
  20    -0.00012193215204529
  21    -4.6266433044306e-12
  22    0.0010267713495974
  23    -9.8948113333621e-13
  24    -0.00086324431596728
  25      0.15848533139149
  26      0.18725608583969
  27    -0.033490283720585
  28     -0.10378650426281
  29    6.9287195659276e-11
  30     -0.41426872983033
  31    -0.092319165027026
  32    3.6101232737399e-11
  33     -0.14210010369857
  34     -0.01280580047434
  35    2.7877721683811e-12
  36    -0.022981469138214
  37    -0.014857196680367
  38    -0.031490006508484
  39    5.3031045480008e-12
  40    -0.0037386732771881
  41    3.204053332991e-12
  42     0.012308596654146
  43    0.0048738602422679
  44    -3.1829630667521e-13
  45    -0.017771074488356
  46    1.9273935137896e-12
  47       0.2192693159826
  48     0.076706978033259
  49    0.0052496286163989
  50    -0.021739560424261
  51    1.9707634108819e-12
  52    0.0044055852085024
  53    -0.010275317995234
  54    5.1475965511926e-13
  55    0.0048028719207161
 Sym= A
 Ene=               2
 Spin= Alpha
 Occup=    1.00000
   1    -8.2718971212691e-05
   2    -0.047918727370462
   3    -0.058124395287567
   4    -0.021606036571431
   5     -0.41283576589054
   6    -9.7580466546978e-12
   7     0.040069899879255
   8     -0.24161431466057
   9    -5.9258095642267e-12
  10      0.03495990091151
  11    -0.020359347072937
  12    -6.6163808882771e-13
  13    0.0056015034517562
  14    -0.0065062170872384
  15     0.019746917693941
  16    4.7576242112522e-13
  17    0.0058057845342142
  18    1.2602915237483e-13
  19    -0.010346075277391
  20     0.020736475925977
  21    5.4187174247055e-13
  22    0.0014841996633494
  23    1.1598868025135e-13
  24    -0.0022499554713413
  25     0.084849668228398
  26      0.16205265781201
  27     0.048546521285804
  28     -0.40098427186787
  29    -8.1111947695442e-12
  30      0.12324346297006
  31     -0.15522261551573
  32    -4.2259416356852e-12
  33    0.0020681756425052
  34    -0.011276073502845
  35    -3.2750760845187e-13
  36    0.0011687290277231
  37     0.020483031897489
  38    -0.014069897600405
  39    -6.2085090982562e-13
  40     -0.02113510386065
  41    -3.7509225740132e-13
  42    -0.0083889158135349
  43      -0.0102763425911
  44    3.7584728446659e-14
  45    0.0047315182036867
  46    -2.2555802664308e-13
  47     -0.23012260133829
  48    -0.074094156270096
  49    -0.0056714801392118
  50     0.011187656600488
  51    -2.3072622862454e-13
  52    -0.014366248416393
  53    0.00073451633633226
  54    -6.0165953994561e-14
  55     -0.01503901753505
 Sym= A
 Ene=               3
 Spin= Alpha
 Occup=    1.00000
   1    1.3373032149051e-09
   2    -2.6428675075013e-10
   3    -3.2342503317916e-10
   4    -1.3797310469185e-11
   5    5.2770652324663e-11
   6      0.48293643377382
   7    1.3223251197802e-10
   8    2.6411767750703e-11
   9      0.29325120273613
  10    8.0674425954566e-11
  11    1.1298225635225e-12
  12     0.032802356604109
  13    -6.2291915741079e-12
  14    -1.1879131222964e-11
  15    -6.5263392024457e-12
  16    -0.023547370697403
  17    1.431017121961e-12
  18    -0.0062388229740347
  19    -1.368630314006e-11
  20    -3.2072575025289e-12
  21    -0.026807233320924
  22    -5.6211059028222e-13
  23    -0.0057340089517254
  24    -1.3078743640619e-09
  25    -3.21434056132e-10
  26    -1.1402009866322e-10
  27    -1.9023907308493e-12
  28    -6.6427344277128e-11
  29      0.40143086921762
  30    -9.7836849225693e-11
  31    2.6366468939958e-11
  32      0.20915817645098
  33    3.8049271133595e-11
  34    -1.2109507035862e-12
  35     0.016157129053395
  36    4.9913705928646e-12
  37    -1.8132622894805e-11
  38    -1.0348279568172e-11
  39      0.03072491661808
  40    -1.1446115620164e-12
  41     0.018563257983275
  42    1.2366983627571e-11
  43    2.7838466999784e-12
  44    -0.0018467998350396
  45    1.1805528134426e-11
  46     0.011167004887345
  47    -1.0862712965742e-10
  48    1.0068213952254e-12
  49    -4.6938877319926e-13
  50    1.3814907511211e-11
  51     0.011418005103861
  52    -1.2158519347493e-11
  53    -4.9180261127536e-12
  54    0.0029799986058222
  55    1.9507688403776e-12
 Sym= A
 Ene=               4
 Spin= Alpha
 Occup=    1.00000
   1    0.00032900331295593
   2      0.30596550494452
   3       0.4743942410347
   4      0.14928070700201
   5     0.062721544697571
   6    -8.0359217939018e-11
   7       0.2608699516715
   8     0.016340865510717
   9    -4.8795605876497e-11
  10     0.085223871521055
  11    -0.0020162644488656
  12    -5.4584790339356e-12
  13    -0.011892453664969
  14    -0.013819798939015
  15    -0.0039753328603849
  16    3.9182161256076e-12
  17    -0.002317590373518
  18    1.0381415990918e-12
  19    -0.0061400208093855
  20     0.003112258017525
  21    4.4604847749061e-12
  22    -0.0038599368292273
  23    9.5404566134946e-13
  24    -0.010135091957858
  25     -0.34373976167017
  26     -0.36313944851853
  27    -0.090317969742078
  28    -0.085167979918353
  29    -6.6796882754667e-11
  30     0.047078278245657
  31    -0.012316271415964
  32    -3.4803740730977e-11
  33    -0.053419599924887
  34    -0.0085262250414054
  35    -2.6882427874337e-12
  36    -0.021952242898765
  37    0.0047272411817968
  38    0.0057524604709982
  39    -5.1125610443496e-12
  40    -0.0026860754649749
  41    -3.0888876789691e-12
  42    -0.020490331270322
  43    -0.022902742684673
  44    3.0705950899586e-13
  45     0.013296143820757
  46    -1.8582736572155e-12
  47     -0.19647301574566
  48    -0.017666522832599
  49    0.0034669035290872
  50     0.021011979809192
  51    -1.8999042705072e-12
  52    -0.013485634396446
  53    -0.0012226519412357
  54    -4.9591773012977e-13
  55    0.00094191431090371
 Sym= A
 Ene=               5
 Spin= Alpha
 Occup=    1.00000
   1    -0.0014584915820354
   2      0.36599878583553
   3      0.36849026199981
   4    0.0002402733201779
   5    -0.053285627772304
   6    4.8086679811947e-10
   7     -0.19126865525781
   8    -0.020758824882541
   9    2.9199362089286e-10
  10    -0.090761942447252
  11     0.002573728354455
  12    3.2661714147465e-11
  13    0.0076656822488796
  14     0.015449143296844
  15    0.0086430558465902
  16    -2.3446528270034e-11
  17    -0.0017558373484861
  18    -6.2121364988591e-12
  19    0.0098045773644286
  20    0.0030826011358949
  21    -2.6691978141588e-11
  22    -8.5867421028229e-05
  23    -5.7091936829016e-12
  24      0.11482892125171
  25      0.26058612164963
  26      0.10168088742646
  27     0.014757201922732
  28     0.071712543050672
  29    3.9971055887828e-10
  30      0.20347856746998
  31    -0.0014691016535365
  32    2.0826237318972e-10
  33    0.0052526685089311
  34    0.0047421573846832
  35    1.6087949300846e-11
  36    -0.0025729379340879
  37     0.023490514195811
  38     0.018403312976964
  39    3.0593252984488e-11
  40    0.00089942828936884
  41    1.8483709159143e-11
  42    -0.010241196662386
  43    -0.0018255589221055
  44    -1.8382128013728e-12
  45    -0.005835607301806
  46    1.1119267270371e-11
  47     0.042359469481808
  48    -0.034353074578616
  49    -0.0026971025579107
  50    -0.0087995947250344
  51    1.1369097226004e-11
  52     0.010253231950858
  53     0.012055844343349
  54    2.9672864009849e-12
  55    -0.0077849694453909
 Sym= A
 Ene=               6
 Spin= Alpha
 Occup=    1.00000
   1     -0.01237520092806
   2    -0.041837331665966
   3    -0.039806103268319
   4    0.0020631882198168
   5    0.0049008895821372
   6    5.8394918281554e-10
   7     0.022833139639058
   8    0.0017717746603428
   9    3.5458606961624e-10
  10     0.011277885735405
  11    -0.00053089505047972
  12    3.9661417341697e-11
  13    -0.0013888748741278
  14    -0.002675845234988
  15    -0.0013664888343801
  16    -2.8473399456349e-11
  17    0.00017596234249317
  18    -7.5440077585724e-12
  19    -0.0024626738307009
  20    -0.0011696971860251
  21    -3.2411406621271e-11
  22    -0.00027368148990627
  23    -6.932672128276e-12
  24      0.99901162846412
  25    -0.019770906003849
  26    -0.034410171183142
  27    -0.0092314484841806
  28    -0.0077539060904731
  29    4.8539563312576e-10
  30    -0.019881807827881
  31    -0.0052992478707363
  32    2.5291002721694e-10
  33    -0.00019457389006772
  34    -0.0024279231248406
  35    1.9538178761182e-11
  36    0.00082222755139427
  37    -0.001679985856885
  38    -0.0021174231096077
  39    3.7151609437395e-11
  40    0.00015542962154059
  41    2.2446058339385e-11
  42    -0.00066303674480633
  43    -0.00034849945793768
  44    -2.2307344741192e-12
  45    0.00028336040751668
  46    1.3503852826949e-11
  47    -0.0078434257756787
  48     0.016898973141096
  49    0.0017983316587777
  50    0.0023613812620776
  51    1.3806110993283e-11
  52    -0.0019117475377445
  53    -0.0063208571527846
  54    3.6028836359117e-12
  55    0.0041730215515699
 Sym= A
 Ene=               7
 Spin= Alpha
 Occup=    1.00000
   1        1.006001257887
   2    0.0097839210506082
   3    -0.042301234076659
   4    -0.011048830808267
   5    -0.00017197556609634
   6    -6.3356810106521e-10
   7    -0.0010262224686477
   8    0.0046915659081251
   9    -3.8471870540642e-10
  10      0.01853343718886
  11    0.00075115054556845
  12    -4.3033780775878e-11
  13    0.0016721226728979
  14    0.00024740190190614
  15    0.00011470487928748
  16    3.0891989040197e-11
  17    1.2828121737217e-05
  18    8.1847362945328e-12
  19    -0.0040018918250651
  20    -0.0019121295691705
  21    3.5168737695051e-11
  22    -0.0001430056916104
  23    7.522500476808e-12
  24     0.012207033960023
  25    -0.0023982662250068
  26     0.026554098267191
  27     0.007409345664544
  28    0.00022502494741632
  29    -5.2664032611364e-10
  30    -0.00080684049442763
  31    0.0060577293200004
  32    -2.7439613154165e-10
  33     0.020873126673724
  34    5.6867801474923e-05
  35    -2.1196646486513e-11
  36    0.0023498705816515
  37    -0.00040391823390767
  38    -0.00054331063472935
  39    -4.0308266497417e-11
  40    0.00013533499204138
  41    -2.4353282613402e-11
  42    0.0053886779731745
  43     0.004116287494618
  44    2.4229322486718e-12
  45    0.00073261593520324
  46    -1.4650042425585e-11
  47    -0.00037548866471291
  48    0.0038729445083028
  49    -0.00038036708891395
  50    0.00032850006848532
  51    -1.4979373905814e-11
  52    -0.00072980756983061
  53    -0.0016187052802517
  54    -3.9094750555703e-12
  55    0.00015556151848384
 Sym= A
 Ene=               8
 Spin= Alpha
 Occup=    0.00000
   1    -1.3268653124817e-11
   2    -2.5264497365794e-11
   3    1.0293987924604e-10
   4    5.3595623742555e-11
   5    -1.6742486646107e-12
   6    -0.071469108681883
   7    -1.7351348690205e-12
   8    -1.6278642280218e-12
   9    -0.040633472121271
  10    -5.6532007132011e-11
  11    -4.4780850788501e-13
  12      0.01035272093148
  13    8.3624545523397e-12
  14    2.1031006329012e-11
  15    1.8931552195705e-11
  16     0.011711823801714
  17    -1.6418266202089e-11
  18    0.0037557152300385
  19    3.980585905725e-12
  20    -1.1355183416056e-11
  21    -0.0004115060692571
  22    1.338841558754e-11
  23    -0.0037786482913744
  24    1.669023615524e-12
  25    -3.0314259526542e-12
  26    -9.0426128938471e-11
  27    -8.3515004017883e-11
  28    1.7980830578147e-12
  29     -0.22488918354031
  30    -1.0862811939099e-11
  31    -2.4177535035331e-11
  32     -0.26615935214959
  33    -4.5722840604644e-11
  34    -7.255859870529e-11
  35       1.1358706477928
  36    -1.5493597783149e-11
  37    -8.1287406516746e-12
  38    3.3161071856322e-12
  39    -0.012260971342298
  40    1.8612938823332e-12
  41    -0.016183470024747
  42    -1.1183427421786e-11
  43    -5.8808106764482e-12
  44     -0.03139227743433
  45    -1.6918624995692e-11
  46     0.031241069480338
  47    1.9627929118396e-11
  48    2.2742946589895e-11
  49    4.2264000650867e-11
  50    -1.2217596638938e-11
  51    0.0084946096800017
  52    6.5848098101428e-12
  53    1.8413750536511e-12
  54    -0.054595924822352
  55    2.2083945742586e-12
 Sym= A
 Ene=               9
 Spin= Alpha
 Occup=    0.00000
   1    -1.3631033512455e-10
   2    -2.824813826419e-10
   3    2.0449998399261e-09
   4    1.5009266554731e-09
   5    2.3307676947182e-10
   6     -0.39654836549332
   7    -2.9690765470771e-10
   8    -1.1395175497371e-09
   9     -0.28740414890707
  10    -5.4959460589751e-11
  11    3.2218395019001e-10
  12     -0.59899587589665
  13    -3.9690627045883e-10
  14    1.0746675138819e-10
  15    2.8265178630214e-10
  16    -0.0065608875591655
  17    -8.2208444068478e-11
  18    -0.0049011427332907
  19    -4.4860080054583e-10
  20    1.7007936899548e-10
  21     -0.01645770613506
  22    1.4053787535656e-10
  23     0.024306077801318
  24    1.5068336678896e-11
  25    -7.6064656544237e-11
  26    -6.0472991337337e-10
  27    -2.2311747042112e-09
  28    -7.0253065665345e-11
  29      0.45193925645846
  30    3.1358771787238e-10
  31    2.5515423451019e-10
  32      0.50969755934892
  33    -1.7775656550879e-09
  34    -6.8387646338021e-10
  35       0.5829099346823
  36    -1.817030569223e-10
  37    -2.4962533003808e-10
  38    2.8893078620366e-10
  39    -0.041904943895982
  40    -2.1108911248601e-10
  41    0.0056637079643553
  42    -9.2918198565729e-10
  43    -5.0290352288165e-11
  44    -0.077424154353271
  45    1.1071137000509e-10
  46    -0.022147631693716
  47    -1.8798934258845e-10
  48    2.8079367647884e-10
  49    3.1327263027049e-10
  50    -4.9869645469061e-10
  51     0.021195953925104
  52    2.4787070452741e-10
  53    3.3230288679294e-10
  54     -0.18023123260049
  55    -2.411631641738e-10
 Sym= A
 Ene=              10
 Spin= Alpha
 Occup=    0.00000
   1    1.0845791762761e-10
   2    2.3989371578732e-10
   3    -7.0894849997701e-10
   4    1.0767102300533e-09
   5    2.3710222776197e-10
   6     -0.40047087461924
   7    -3.009997093306e-10
   8    -2.5419861010327e-10
   9     -0.19334054957739
  10    6.1911264046578e-10
  11    4.0608664301476e-10
  12       1.5998128757801
  13    -3.6653762395177e-10
  14    -4.2680331627359e-11
  15    -1.4457785856831e-10
  16     0.024919383334212
  17    1.6135349636953e-09
  18     0.009815071704459
  19    -4.5452768659814e-10
  20    3.2246729607704e-10
  21     0.029384048207621
  22    -9.9915037023787e-10
  23    0.0019011285885088
  24    -5.6433383193129e-10
  25    -1.2734568717932e-09
  26    3.3210100156079e-09
  27    -1.0822924424885e-09
  28    -3.9919674407934e-10
  29      0.39242602787063
  30    5.018525010641e-10
  31    6.282181925388e-10
  32    -0.033413634934216
  33    -5.9598898341599e-10
  34    -8.3120343311265e-10
  35      -1.0846929349052
  36    -1.42820417683e-10
  37    -2.5647637514259e-10
  38    -6.904342839165e-12
  39    -0.075837113850078
  40    4.9838693175704e-10
  41     0.063908641282815
  42    4.5228568415452e-10
  43    3.7256605561883e-11
  44     0.034409672754489
  45    -4.166968546917e-10
  46      0.13395648715049
  47    1.2848596201087e-10
  48    -1.549728640576e-09
  49    1.907878258746e-10
  50    -6.3765454627166e-10
  51    -0.010863982097975
  52    1.0523743392286e-09
  53    1.507586729011e-09
  54      -0.2240046945941
  55    -7.2425844485338e-10
 Sym= A
 Ene=              11
 Spin= Alpha
 Occup=    0.00000
   1    -0.0059503082382244
   2     0.083283677724014
   3      0.16153281178036
   4       2.8363838026196
   5     0.019123899580563
   6    5.6243846072419e-10
   7     -0.28276488515687
   8      -0.0810652057146
   9    -1.1885081842644e-09
  10     -0.33612034822938
  11     -0.96090937264286
  12    5.7884150184068e-10
  13     -0.18900460619793
  14    0.0030530482966068
  15     -0.01954054682884
  16    1.820259402495e-09
  17     0.004474850901162
  18    -1.0184332663461e-09
  19    -0.074995159709677
  20     0.095547253925334
  21    -1.0049701383339e-09
  22    -0.066347836525894
  23    1.509863132804e-09
  24      -0.1030350889433
  25     -0.33268935730419
  26     -0.64834210432589
  27      -4.2847647143725
  28     -0.10205740825674
  29    -1.9065506332507e-10
  30      -0.2847142291011
  31     -0.45564380218499
  32    -3.6205088339756e-10
  33     -0.20829550963265
  34     -0.14619220262947
  35    -3.4220840628263e-10
  36     -0.81857553193376
  37     0.084798288784463
  38     0.054046969304946
  39    6.1716301665823e-10
  40      0.11722460728729
  41    1.5023454747189e-09
  42    -0.0028457950650198
  43      0.16067929769895
  44    1.1685797018173e-09
  45      0.22080086850274
  46    -2.6058365020572e-09
  47    -0.047612966291076
  48       2.0241616304222
  49      0.19331405099697
  50    -0.082841167174772
  51    2.0295366782167e-09
  52    0.0051019280325898
  53     -0.40977290116487
  54    1.9957190689745e-10
  55      0.23275152017423
 Sym= A
 Ene=              12
 Spin= Alpha
 Occup=    0.00000
   1    2.1005182651908e-10
   2    1.3865626320704e-09
   3    1.6760338292019e-08
   4    3.5790425437478e-08
   5    -5.1123264917477e-10
   6     -0.11264694210167
   7    1.5191115146098e-09
   8    -4.4984213771493e-09
   9     -0.21021166163814
  10    -1.5438732203359e-08
  11    -3.6247688713729e-09
  12      0.34263721122696
  13    -8.0303526948051e-09
  14    -1.6585872070171e-09
  15    3.3292737471532e-10
  16     0.010173416342844
  17    -2.6728237939849e-09
  18    -0.019867931212981
  19    4.2182538791024e-09
  20    2.404128758614e-09
  21    -0.086062422022807
  22    1.1414162900982e-09
  23      0.20471004835821
  24    -1.0728018854188e-09
  25    -2.9604977881338e-09
  26    -1.9155582961279e-08
  27    -2.4369292603039e-08
  28    -2.0643840706024e-09
  29    -0.080265839825874
  30    2.8513567973633e-09
  31    -3.1099618894675e-09
  32     -0.21643269313737
  33    -2.2441854831856e-08
  34    -7.0915324595651e-10
  35     -0.89621724575147
  36    -6.0043702856556e-09
  37    1.0265899297502e-10
  38    1.400307998333e-09
  39     0.068861869017087
  40    -1.3113154242619e-09
  41    -0.070622151716976
  42    -6.0957022892234e-09
  43    -2.277498793651e-09
  44      0.24385688177643
  45    3.7675080671016e-10
  46      0.15113994505391
  47    5.9241669746424e-10
  48    -6.9483940643555e-09
  49    3.7272368709049e-11
  50    -3.4264116768915e-09
  51    -0.0072593278835269
  52    2.9718944408041e-09
  53    3.1276967456138e-09
  54       1.3160728282788
  55    -2.4441084429107e-09
 Sym= A
 Ene=              13
 Spin= Alpha
 Occup=    0.00000
   1    6.9511568696929e-09
   2    1.9240010571863e-08
   3    -2.4052688063082e-08
   4    7.9007150876398e-08
   5    -3.5701737730458e-09
   6     -0.16968343634794
   7    1.6115005822947e-08
   8    7.6287619398438e-09
   9      0.20293418257875
  10    -4.8905629120909e-08
  11    -1.4815563537973e-08
  12     -0.10551071122853
  13    -8.9381015932951e-09
  14    -1.2840107960517e-08
  15    7.9663806511169e-09
  16    -0.054166380050383
  17    -1.9841632363752e-08
  18     0.071068412585097
  19    2.0920709613427e-08
  20    1.3986570696945e-08
  21      0.12299727744412
  22    1.3361469826836e-08
  23     -0.51443280220511
  24    -1.0186657383058e-08
  25    -1.3162277749838e-08
  26    7.2156788910798e-08
  27    6.6135517523984e-08
  28    -5.5701623638333e-10
  29      -0.6581632323226
  30    -1.1330419996725e-08
  31    2.7561911670325e-08
  32      0.96204149328775
  33    -4.804323680818e-08
  34    3.1628591964449e-08
  35     -0.18847380952726
  36    -3.5624892095868e-08
  37    -8.0611895623338e-09
  38    1.7597882335161e-09
  39     -0.59527392563184
  40    7.0686722761253e-09
  41      0.23953700617971
  42    3.1272002255584e-08
  43    -4.3146338387302e-09
  44    0.0041750882461124
  45    -2.325844703254e-08
  46       0.3474276278621
  47    2.8974929116499e-09
  48    -1.7307800940804e-07
  49    -5.1537936054923e-08
  50    3.6397255384437e-08
  51    0.0032905450559194
  52    7.4622138180241e-09
  53    6.4176206570923e-08
  54     -0.34967336093808
  55    -2.5054707551353e-08
 Sym= A
 Ene=              14
 Spin= Alpha
 Occup=    0.00000
   1    6.0798583202815e-07
   2    1.2880376480571e-06
   3    -4.744894569724e-06
   4    -2.7568051962452e-06
   5    -5.3786183694881e-07
   6    -0.019424539731824
   7    3.7701218458364e-08
   8    2.4171785936273e-06
   9     -0.38423181279947
  10    1.8964872359233e-06
  11    -6.2955774603744e-07
  12      0.53683537021146
  13    2.2603653120629e-06
  14    -4.9022998146949e-07
  15    6.2947975730991e-07
  16    -0.006185284107568
  17    -3.2683368676475e-07
  18    -0.083251646912307
  19    6.2419437400188e-07
  20    -3.9984548072286e-07
  21     -0.20651678263755
  22    2.4955690158749e-07
  23      0.38140665971392
  24    -8.1806620107783e-07
  25    -1.3970339984787e-06
  26    8.9217976067546e-06
  27    9.1060924346722e-06
  28    2.2647168659436e-08
  29     -0.70304419498472
  30    -3.1369895912792e-09
  31    1.3241834331327e-06
  32       1.2878584012278
  33    1.7069629262967e-06
  34    2.596820672193e-06
  35     -0.48206903974604
  36    -3.0739133532634e-06
  37    1.8903440710297e-07
  38    -3.6518485003958e-07
  39      0.43370967415448
  40    6.9809590348308e-08
  41     -0.41687651551855
  42    1.6543336014515e-06
  43    -6.2653472816213e-07
  44     -0.14232674126012
  45    -5.1968775121987e-07
  46     0.083097983221134
  47    -9.2095676339805e-08
  48    -7.8681819430843e-06
  49    -3.3901800916584e-06
  50    9.9640305039784e-07
  51     0.075003337916394
  52    1.4362254304408e-07
  53    2.7761957259403e-06
  54     -0.69002034052287
  55    1.6377783389332e-07
 Sym= A
 Ene=              15
 Spin= Alpha
 Occup=    0.00000
   1    -3.3970734281389e-06
   2    -5.8332318875151e-06
   3    4.7168196534583e-05
   4    0.00015732366602936
   5    5.1385775353861e-07
   6     -0.35631616590734
   7    -3.3939797385788e-07
   8    -2.6374391304559e-05
   9      0.53675477319404
  10    -3.3745794250175e-05
  11    -1.9265492542316e-05
  12     -0.14029246414419
  13    -5.1622009186235e-05
  14    -5.9673683200542e-06
  15    -2.0113719095307e-06
  16    -0.089789259141542
  17    -5.7411112495941e-06
  18      0.96292221000508
  19    1.1456546813535e-06
  20    7.1822423924887e-06
  21     -0.07764220084319
  22    1.466889780421e-05
  23     -0.44842942993693
  24    7.4292209696054e-06
  25    1.2381595184107e-05
  26    -7.886206161729e-05
  27    -0.00011213669554722
  28    -9.1722289873591e-06
  29    -0.037662905100949
  30    9.3915542288844e-06
  31    -8.1996419427188e-06
  32     -0.33236890711712
  33    -6.1401359642527e-05
  34    -6.1191990471953e-06
  35    -0.078343275561732
  36    -3.1691656533408e-05
  37    -5.565662350391e-06
  38    -3.0010837529461e-06
  39      0.32231356732559
  40    3.0360032150215e-06
  41      0.36613859909572
  42    -1.2770799577055e-05
  43    2.6309223085149e-05
  44    -0.073808629032124
  45    -2.0343989303083e-05
  46     -0.39379985431468
  47    3.7900524528731e-05
  48    -3.6755759919015e-05
  49    -3.7657144826355e-06
  50    4.9081081855513e-06
  51     0.027607861282468
  52    1.3847552809318e-05
  53    1.4919957840956e-05
  54      0.32289358788559
  55    -8.1997261226616e-06
 Sym= A
 Ene=              16
 Spin= Alpha
 Occup=    0.00000
   1    0.00018239373591805
   2     0.052890993565304
   3       0.1281491566541
   4       2.1461930194293
   5     -0.14970031952519
   6    -0.093182120280116
   7    -0.054106415440449
   8      -0.2332184189375
   9     0.055368783362684
  10     -0.16347584349473
  11       1.2873162620866
  12     -0.28141599594664
  13     -0.83529193657045
  14    -0.005997772912791
  15    0.0017121065740593
  16     0.010129632654262
  17    0.0033253361671908
  18    -0.032143708238538
  19     0.015431429515769
  20    -0.0032192106031944
  21     0.035644812334767
  22    -0.025346202435813
  23     0.076672035724898
  24    -0.038425081038759
  25     -0.17343134912595
  26     -0.38943705068441
  27      -1.5005562474934
  28     0.078338479606043
  29    -0.0018159940877556
  30     -0.10302142857707
  31    -0.015343825499787
  32      0.11717159171689
  33     -0.24705670920922
  34      -1.7876396501261
  35      0.30495645853083
  36     -0.66266063655929
  37     0.021475142200139
  38     0.019645569264077
  39    -0.0045227619310263
  40     0.046657891513208
  41    -0.032051998980954
  42      0.03869730129093
  43    -0.046007935103138
  44      0.10015450172405
  45      0.03493790923535
  46      0.18998184421881
  47    0.0048014303040131
  48      0.21349813356948
  49     -0.45603884337661
  50    -0.020259433645892