[Molden Format]
made by pyscf v[2.13.1]
[Atoms] (AU)
O   1   8     0.21099695469856     0.00000000000000     2.15462460678861
N   2   7    -0.44776862100326     0.00000000000000    -0.03589262653049
H   3   1     1.18163474748449     0.00000000000000    -1.17386889907833
[GTO]
1 0
 s    8 1.00
                 11720  0.00070964594651845
                  1759  0.0054672722921914
                 400.8   0.027823118610189
                 113.7    0.10474773971146
                 37.03    0.28292084635691
                 13.27    0.44849523869833
                 5.025    0.27081688521277
                 1.013    0.01545029160744
 s    8 1.00
                 11720  -0.00031444341168873
                  1759  -0.0024821376810179
                 400.8  -0.012316355381583
                 113.7  -0.050538917343672
                 37.03   -0.13938490331632
                 13.27   -0.32507749481778
                 5.025   -0.22984830758785
                 1.013     1.0953793467883
 s    1 1.00
                0.3023                   1
 s    1 1.00
               0.07896                   1
 p    3 1.00
                  17.7   0.062679166281506
                 3.854    0.33353656587936
                 1.046    0.74123964163973
 p    1 1.00
                0.2753                   1
 p    1 1.00
               0.06856                   1
 d    1 1.00
                 1.185                   1
 d    1 1.00
                 0.332                   1

2 0
 s    8 1.00
                  9046  0.00069961741342552
                  1357  0.0053860546299287
                 309.3   0.027391021189057
                 87.73    0.10315059198201
                 28.56    0.27857066331743
                 10.21    0.44829484945412
                 3.838    0.27808592839527
                0.7466   0.015431561233271
 s    8 1.00
                  9046  -0.00030499009595337
                  1357  -0.0024080263785077
                 309.3   -0.01194444872518
                 87.73  -0.048925992909017
                 28.56   -0.13447272472496
                 10.21   -0.31511257770011
                 3.838   -0.24285783254964
                0.7466     1.0943822068542
 s    1 1.00
                0.2248                   1
 s    1 1.00
               0.06124                   1
 p    3 1.00
                 13.55   0.058905676772132
                 2.917    0.32046110671427
                0.7973    0.75304206179207
 p    1 1.00
                0.2185                   1
 p    1 1.00
               0.05611                   1
 d    1 1.00
                 0.817                   1
 d    1 1.00
                  0.23                   1

3 0
 s    3 1.00
                 13.01   0.033498726389998
                 1.962    0.23480080117413
                0.4446     0.8136829578829
 s    1 1.00
                 0.122                   1
 s    1 1.00
               0.02974                   1
 p    1 1.00
                 0.727                   1
 p    1 1.00
                 0.141                   1

[5d]
[7f]
[9g]

[MO]
 Sym= A
 Ene=               0
 Spin= Alpha
 Occup=    1.00000
   1    -0.0028967519441395
   2    -0.017469420414118
   3    -0.016772967699069
   4    -0.012443432605743
   5      0.52655268859898
   6    -1.6230471735879e-12
   7    -0.092516313479284
   8      0.36767190448377
   9    -9.8563862058484e-13
  10    -0.071330423070839
  11      0.12556103593691
  12    -1.0958702840499e-13
  13    -0.022615776643851
  14    -0.00048679456354548
  15    -0.0026895399813147
  16    7.9195688683395e-14
  17    -0.00083307178318453
  18    2.0947144237498e-14
  19    0.0012108556968504
  20    -0.0017298683193615
  21    9.0062010656926e-14
  22    -0.0015721640207998
  23    1.9312206831105e-14
  24    -0.00049070963888182
  25      0.12355422079293
  26      0.26768418826406
  27      0.16393164524583
  28     -0.36096520099581
  29    -1.3492315330248e-12
  30    -0.042966616946392
  31     -0.22164560995133
  32    -7.0281224697862e-13
  33    -0.030919277862069
  34    -0.074821772420372
  35    -5.4853485688695e-14
  36    -0.0037298085868285
  37    -0.010732270522566
  38     0.023323083938763
  39    -1.0324596651936e-13
  40    -0.010491849175613
  41    -6.2391054159944e-14
  42    2.1541318611625e-05
  43    0.0024261820829654
  44    6.1810618741824e-15
  45    0.00063544549143398
  46    -3.758038585457e-14
  47     -0.27880041118946
  48     -0.18837085304566
  49    -0.037909976758598
  50    0.0031233429702083
  51    -3.827171663526e-14
  52    -0.0092993004590543
  53    -0.018416475992512
  54    -1.0196704678914e-14
  55     0.019147364077092
 Sym= A
 Ene=               1
 Spin= Alpha
 Occup=    1.00000
   1    -0.0036932905708499
   2    -0.011527235047734
   3     0.015506070989147
   4     0.042245458639351
   5     -0.34252130337555
   6    -2.8613057036051e-11
   7      0.25598948711302
   8     -0.20328720497273
   9    -1.7375337319893e-11
  10      0.13740333999386
  11    -0.022692569680249
  12    -1.9423315046022e-12
  13    0.0067602118267474
  14    -0.012285213074353
  15     0.014675938685267
  16    1.3950738289671e-12
  17    0.0043911671665179
  18    3.6958078350629e-13
  19    -0.0066938590138901
  20     0.016784536260743
  21    1.5886503180188e-12
  22    0.0019853224831962
  23    3.3996576703563e-13
  24    -0.00041591912578682
  25      0.18336092014274
  26      0.26644800598885
  27     0.029758744691229
  28     -0.39124675846542
  29    -2.3784245846029e-11
  30     -0.13583728443031
  31     -0.18416686691587
  32    -1.2391871609778e-11
  33     -0.07646301637954
  34    -0.017673976586792
  35    -9.5871247037709e-13
  36    -0.010918679791533
  37    0.0080587592509312
  38    -0.029114033637132
  39    -1.820453769506e-12
  40    -0.019570970861381
  41    -1.0998404213488e-12
  42    0.0011755421558108
  43    -0.0043484398415891
  44    1.0992233635949e-13
  45    -0.0069556255165279
  46    -6.6157946386758e-13
  47    -0.059730418399945
  48    -0.020813801310034
  49    -0.0027381183065369
  50    -0.0042949363881078
  51    -6.7650926078472e-13
  52    -0.0086960617684545
  53    -0.0054880834216223
  54    -1.7629061862694e-13
  55    -0.0093179962035558
 Sym= A
 Ene=               2
 Spin= Alpha
 Occup=    1.00000
   1    -1.7342869441822e-09
   2    -3.3759777407645e-11
   3    5.322628641439e-11
   4    1.6150238167258e-11
   5    -2.5064150560617e-11
   6      0.48293643377382
   7    6.2870739965304e-12
   8    -2.2501175924388e-11
   9      0.29325120273613
  10    -2.7895198121431e-11
  11    -2.233506291337e-12
  12     0.032802356604109
  13    -2.7319981890312e-12
  14    -1.3718163592776e-12
  15    8.1879674760522e-13
  16    -0.023547370697403
  17    4.2901732146902e-13
  18    -0.0062388229740347
  19    5.6051359358206e-12
  20    4.2255585674539e-12
  21    -0.026807233320924
  22    3.1162488494327e-13
  23    -0.0057340089517254
  24    3.4916938745323e-10
  25    1.5289445440144e-11
  26    -3.6559451557797e-11
  27    -1.0329920462113e-11
  28    -2.9246984122497e-11
  29      0.40143086921762
  30    2.7353873124763e-12
  31    -2.4055693064157e-11
  32      0.20915817645098
  33    -3.5665124842764e-11
  34    -1.9201822157431e-12
  35     0.016157129053395
  36    -3.441587156964e-12
  37    1.6617835313294e-12
  38    -5.993199120032e-13
  39      0.03072491661808
  40    -1.5836593076411e-12
  41     0.018563257983275
  42    -9.8109671918852e-12
  43    -7.4574042889584e-12
  44    -0.0018467998350396
  45    -1.2941286558591e-12
  46     0.011167004887345
  47    -1.3197139922591e-11
  48    -6.1621219270886e-12
  49    6.6718994433531e-13
  50    3.8448464006265e-13
  51     0.011418005103861
  52    2.1448341608215e-14
  53    6.0867069720654e-13
  54    0.0029799986058222
  55    2.2407427439584e-13
 Sym= A
 Ene=               3
 Spin= Alpha
 Occup=    1.00000
   1    0.0036949113823212
   2    -0.039024248760534
   3    -0.095515311192994
   4    -0.099089314484734
   5     -0.21456170309736
   6    -1.6616595875268e-11
   7     -0.31695092445774
   8     -0.11847512750621
   9    -1.0089817344246e-11
  10     -0.14645872406111
  11    0.0018899833380747
  12    -1.1282498056831e-12
  13    -0.00016204519166882
  14    0.0074942361200993
  15      0.01404146380047
  16    8.1024320387794e-13
  17    0.0036769936939738
  18    2.1468690700418e-13
  19    -0.0076600021565537
  20     0.012338757476042
  21    9.222315799493e-13
  22    -0.0003244910207391
  23    1.971982322319e-13
  24    0.0050947041196006
  25    -0.090261772126874
  26    -0.081878320383612
  27     0.049441465743951
  28     -0.14682996657179
  29    -1.3811897340419e-11
  30      0.42599261190548
  31    -0.015092322668916
  32    -7.1966360568726e-12
  33      0.11295809553443
  34     0.003285593554506
  35    -5.5570313569336e-13
  36     0.017421037590139
  37     0.025735150070071
  38     0.019601640026249
  39    -1.0571348218662e-12
  40    -0.0091623033583397
  41    -6.3872588716942e-13
  42    -0.017206162013415
  43    -0.011802783594948
  44    6.3341007032822e-14
  45     0.017868569423467
  46    -3.8414689327041e-13
  47     -0.32417682936044
  48      -0.1095705286997
  49    -0.0076170162782603
  50     0.025206030209706
  51    -3.9286906932692e-13
  52    -0.012180898630824
  53    0.0094615339795031
  54    -1.0284060809399e-13
  55    -0.012831577898905
 Sym= A
 Ene=               4
 Spin= Alpha
 Occup=    1.00000
   1    0.0032093135231822
   2      0.32972615915122
   3      0.50511867006897
   4      0.16068312587905
   5     0.059960208530643
   6    1.1924162947111e-11
   7      0.29296983969938
   8     0.014557865810233
   9    7.241101498923e-12
  10      0.10089024612356
  11    -0.0031220147899063
  12    8.096952546656e-13
  13    -0.011153539721753
  14    -0.014365935237459
  15    -0.0038975511563778
  16    -5.8141206181867e-13
  17    -0.0024901744971149
  18    -1.5402993552235e-13
  19    -0.0053574959903312
  20    0.0031766505194321
  21    -6.6201774352809e-13
  22    -0.0037409680836699
  23    -1.4162368828117e-13
  24    -0.0089035987214682
  25     -0.31262541160932
  26     -0.33627801653518
  27     -0.09209290523734
  28    -0.091707610051108
  29    9.911721028285e-12
  30     0.014008885988477
  31    -0.021875828428791
  32    5.1639230987556e-12
  33    -0.067331000637942
  34    -0.0096947182441141
  35    3.9908782085436e-13
  36    -0.024287795431035
  37    0.0042469788734283
  38    0.0034831771255917
  39    7.5859692984427e-13
  40    -0.0029857781560139
  41    4.5832993212453e-13
  42    -0.019555955034474
  43    -0.022302101979488
  44    -4.5771020256881e-14
  45     0.011108746781783
  46    2.7560406063822e-13
  47     -0.17092775169765
  48    -0.011729753767077
  49    0.0037625738496379
  50     0.018208703874862
  51    2.8194175946871e-13
  52    -0.012440677426663
  53    -0.0017070285795307
  54    7.3570455531173e-14
  55     0.001112946874271
 Sym= A
 Ene=               5
 Spin= Alpha
 Occup=    1.00000
   1    0.0057500989557323
   2      0.35658885915436
   3      0.35380664921408
   4    -0.0011602096267204
   5    -0.039775693704802
   6    1.6849630521561e-11
   7     -0.18681236848971
   8    -0.012244052390436
   9    1.023094249332e-11
  10    -0.087086751552397
  11    0.0027182060251427
  12    1.1446077800456e-12
  13    0.0083365340930287
  14     0.015956990349465
  15    0.0078916599965702
  16    -8.2155120844424e-13
  17    -0.0019338921887951
  18    -2.1769612279304e-13
  19     0.010868901217423
  20    0.0020746662145851
  21    -9.3524968471324e-13
  22    0.00013778180925828
  23    -1.9988794409152e-13
  24     0.001443776044117
  25      0.28242144675655
  26       0.1257760444904
  27      0.01654090563823
  28     0.089704779444113
  29    1.4005914093019e-11
  30        0.175438697314
  31    0.0025267801490889
  32    7.2976839323652e-12
  33    0.0012116768104149
  34    0.0053924242272689
  35    5.6359199538319e-13
  36    -0.0026194892242039
  37      0.02155867168516
  38     0.017207287236836
  39    1.0719815669756e-12
  40     0.001791706553757
  41    6.4767257742574e-13
  42    -0.0079549557818622
  43    0.00018002480749483
  44    -6.4010140520039e-14
  45    -0.0075981684003592
  46    3.8960844789084e-13
  47       0.0746818270749
  48    -0.027663433196369
  49    -0.0025066903325466
  50    -0.011668745989652
  51    3.9841150518406e-13
  52     0.011952911488418
  53     0.012190995940956
  54    1.0409882410801e-13
  55    -0.0073434269314763
 Sym= A
 Ene=               6
 Spin= Alpha
 Occup=    1.00000
   1       1.0046064400504
   2    0.0064142144338443
   3    -0.046379962589414
   4    -0.011856852887626
   5    -0.00045317868178629
   6    8.4011423261704e-10
   7     -0.00142734623449
   8    0.0045245422267751
   9    5.1013861789626e-10
  10     0.018402669099684
  11    0.00075840362738736
  12    5.7062866049268e-11
  13    0.0016908356076213
  14    0.00026949179640927
  15    0.00012952550894645
  16    -4.0962849291131e-11
  17    4.1156981215854e-05
  18    -1.0853038359329e-11
  19    -0.0039655764790056
  20    -0.001855524232539
  21    -4.6633830473971e-11
  22    -0.00011229802836351
  23    -9.9748970208292e-12
  24    -0.054325262081264
  25    -0.0038055718280553
  26      0.02829364275347
  27    0.0081869746903386
  28    -0.00032345217032958
  29    6.9832747159472e-10
  30    -0.0014776447192374
  31    0.0064131329811929
  32    3.6385058783801e-10
  33     0.021193003261664
  34    0.00018423614009871
  35    2.8106790222588e-11
  36    0.0024351787328504
  37    -0.00057178324278969
  38    -0.00063042630227193
  39    5.3448921293374e-11
  40    9.9998109745368e-05
  41    3.2292565801516e-11
  42    0.0055853813551575
  43    0.0041998182732703
  44    -3.2127462558194e-12
  45    0.00079156392760977
  46    1.9426040976007e-11
  47    -0.0005674312164469
  48    0.0030425072013044
  49    -0.000487586784726
  50    0.00028636018234697
  51    1.9862719152754e-11
  52    -0.00072991903424847
  53    -0.001343806641516
  54    5.1840279560407e-12
  55    -4.1916939695263e-05
 Sym= A
 Ene=               7
 Spin= Alpha
 Occup=    1.00000
   1     0.054100575319671
   2    0.0002546411553791
   3    -0.000817643657233
   4    0.0016884878564476
   5    0.00058004428084193
   6    -1.2232005345736e-10
   7    0.0022478044061351
   8    0.0007341934332369
   9    -7.4278536447006e-11
  10    0.0027697271375818
  11    -0.00016038112294854
  12    -8.3103123910176e-12
  13    -0.00039507518664952
  14    -0.00090521157290479
  15    -0.00047527559876044
  16    5.9633957845485e-12
  17    -4.838111368083e-05
  18    1.579938784745e-12
  19    -0.0015359153190802
  20    -0.0010431806070858
  21    6.7927930723312e-12
  22    -0.00028599540885548
  23    1.4530379834624e-12
  24        1.004195588652
  25     0.010385808899085
  26    -0.020262353889665
  27    -0.0072185201979851
  28    0.0019815058061807
  29    -1.0167598380817e-10
  30    0.00066044826703514
  31    -0.0046526902607286
  32    -5.2972809390839e-11
  33     0.001262592265007
  34    -0.0018541798813836
  35    -4.0907810285333e-12
  36    0.00061856421135591
  37    0.00077789776363912
  38    -0.00014840490412095
  39    -7.7819725145775e-12
  40    0.00035228460296472
  41    -4.70173370624e-12
  42    -0.001322121016566
  43    -0.00016814056818837
  44    4.7017680188494e-13
  45    -0.00044732476577755
  46    -2.8273008298398e-12
  47    -0.00067255186360546
  48     0.013865828553494
  49    0.0014991087814802
  50    0.0011923688729009
  51    -2.8921197320934e-12
  52    -0.00068198293020595
  53    -0.0050645407725421
  54    -7.5519584550684e-13
  55    0.0033618836143954
 Sym= A
 Ene=               8
 Spin= Alpha
 Occup=    0.00000
   1    0.0025695773437253
   2    -0.016547117950793
   3    -0.031630969929153
   4         -1.2656995518
   5    -0.022453021299907
   6    -2.7642519379757e-12
   7     -0.12485883610682
   8     0.035786960851749
   9    9.0819439230331e-12
  10    -0.064385649727537
  11      0.17171208137961
  12    1.3168572618496e-12
  13       2.0354103458937
  14     0.014198822419539
  15    0.0078162327255593
  16    2.5759701782393e-12
  17    0.0031227809457902
  18    1.6865261427298e-11
  19    -0.037926014761501
  20    -0.024329429279085
  21    -1.0343693673248e-12
  22    -0.013860528564839
  23    -1.3601535252205e-11
  24    -0.00099286540449139
  25    -0.0033672396541917
  26      0.20148356595269
  27       3.0915814718794
  28    -0.017530136888969
  29    3.4932554839343e-12
  30     0.083219405414564
  31    -0.024220260628761
  32    -8.0119161677321e-12
  33      0.13649433975342
  34      0.76020119642106
  35    -1.6288294499587e-12
  36      -1.0312256496959
  37     0.023497196590685
  38     0.015154162245866
  39    5.0667451095247e-12
  40    -0.0028217466345307
  41    -5.7470300092944e-12
  42     0.012597285587535
  43     -0.05596211987065
  44    -9.5718828899616e-12
  45    0.0074543687221805
  46    5.9421545629688e-12
  47    -0.026204691613244
  48     -0.21726275462063
  49       -1.272145354159
  50    -0.0014746968292615
  51    -5.9021508083822e-12
  52    -0.018794499089904
  53    -0.083126924845111
  54    2.6391835029424e-12
  55     0.043239767420195
 Sym= A
 Ene=               9
 Spin= Alpha
 Occup=    0.00000
   1    -0.0021584697071301
   2    0.0088105604121184
   3     -0.19074319321215
   4       1.8554395928042
   5     0.045745150639621
   6    2.8185499079114e-11
   7      0.16409995106484
   8    0.0073758198129416
   9    -4.0902266540421e-10
  10    -0.063184627496017
  11     -0.31459946855982
  12    -7.507350974714e-11
  13     -0.76609493755777
  14    0.0076935418467183
  15      0.02323358903433
  16    -2.5440317782317e-10
  17    -0.022102017093194
  18    1.1764342277596e-10
  19    -0.017714037010734
  20     0.010864569146133
  21    4.8891788606962e-10
  22     0.019592011478841
  23    6.1643235433499e-11
  24    -0.013448766343777
  25     -0.10973385195833
  26      -0.3792763044887
  27      -1.0318685611129
  28    -0.076015206204038
  29    -1.0789528264712e-10
  30      0.25912643114225
  31     0.020200108013184
  32    6.1398027226317e-10
  33     0.098838720137983
  34      0.15151828541473
  35    -1.0251739262312e-10
  36      -1.2981023596304
  37    -0.029578864113771
  38    0.0027228262145884
  39    -5.5417798795841e-11
  40     0.022488151995907
  41    1.0877369111037e-10
  42      0.15133931838735
  43     0.060146603337636
  44    3.4273125245236e-10
  45     0.053054430761493
  46    1.8479014186086e-10
  47     0.027511521411693
  48     -0.24912646690096
  49    -0.020290552381534
  50     0.030191892095445
  51    -1.731362526957e-10
  52    -0.0065060233241662
  53    -0.057112748052629
  54    6.3902210639823e-11
  55    -0.089692636838724
 Sym= A
 Ene=              10
 Spin= Alpha
 Occup=    0.00000
   1    -1.4242139505911e-10
   2    -2.7574156817905e-10
   3    1.7447661046705e-09
   4    1.7266265786017e-09
   5    -1.0834988034776e-10
   6     -0.46022739119987
   7    -7.0588335638977e-11
   8    5.663787095118e-10
   9     -0.33636656023128
  10    -9.0503648332901e-10
  11    3.7581641198923e-11
  12     -0.26521195759421
  13    -3.9853180040789e-10
  14    -9.8911181422046e-11
  15    3.4342699605263e-10
  16    -0.019087950152492
  17    2.5651028975996e-10
  18     0.032755232995231
  19    3.8747772936349e-10
  20    -5.6228744269509e-10
  21    -0.019056952988281
  22    -5.8418087676866e-10
  23    -0.015226419310041
  24    3.2699605090448e-10
  25    5.7607722920674e-10
  26    -3.1628911847042e-09
  27    -2.2022539830707e-09
  28    -1.4955177539441e-10
  29      0.45071063090315
  30    2.1714923943512e-10
  31    -1.9856361642578e-09
  32      0.40278520288745
  33    -7.222715333347e-10
  34    -3.7091781593525e-10
  35      0.34509457834763
  36    -4.2925785743806e-10
  37    1.131938480668e-11
  38     1.70410151686e-10
  39    -0.0068995143573265
  40    -1.7396354844684e-10
  41      -0.0242830008666
  42    -5.727877704566e-11
  43    -6.178174283367e-10
  44    -0.056625559256091
  45    -3.0290946550037e-10
  46    -0.039385375133428
  47    8.2377714566495e-10
  48    1.3523364123139e-09
  49    1.8877500604264e-10
  50    -4.3704014808654e-10
  51     0.013368208763842
  52    2.8527432552289e-10
  53    -1.5262048667098e-10
  54     0.047418159733775
  55    4.7491996628651e-10
 Sym= A
 Ene=              11
 Spin= Alpha
 Occup=    0.00000
   1    -0.018385923478837
   2     -0.14133426894731
   3    -0.034537823136429
   4     -0.36715995381342
   5     0.054064512323746
   6    2.7891671138172e-10
   7    0.0039934642788258
   8     -0.27527947389633
   9    -5.4291852389502e-10
  10      0.14737087149831
  11      0.34994437337519
  12    7.0486466692835e-11
  13      0.28623939006147
  14    -0.063265466784961
  15     0.041943957900235
  16    1.1917708727803e-09
  17     0.053195913194466
  18    -1.3895716321355e-09
  19     0.030508266678296
  20      0.22475521703177
  21    -4.8669143795061e-10
  22     0.017810996934932
  23    1.1670572603275e-09
  24    -0.061651133820671
  25     -0.13905900753551
  26      0.26061705611533
  27       0.0215623013287
  28     -0.06511475424206
  29    -1.5713650645681e-10
  30      0.33255951977962
  31     0.087698145392382
  32    6.2036839326267e-10
  33     -0.42661221315138
  34     -0.47902999373197
  35    3.257488315496e-10
  36       0.3299702994946
  37    -0.013161087758337
  38     0.073033441658819
  39    4.7429745617162e-10
  40    -0.019491331485157
  41    -8.0077077379789e-10
  42    -0.073338052979774
  43     0.023219144075647
  44    -1.6100249644295e-10
  45     -0.10167806464488
  46    4.5132332635269e-10
  47     -0.03067344254505
  48      0.33039879015259
  49      0.78483738249171
  50      0.11165634219103
  51    1.0391669597269e-09
  52    -0.058627053404174
  53      0.57526752522884
  54    -1.1611793515399e-09
  55      0.42477308672242
 Sym= A
 Ene=              12
 Spin= Alpha
 Occup=    0.00000
   1    -0.014994194095225
   2       0.0212970848052
   3    -0.090612756000307
   4      -1.0259718457626
   5     -0.32572357176389
   6    5.3128089825913e-10
   7     -0.11278816596985
   8      0.15085032505873
   9    -1.0905381676463e-09
  10     0.044134445819769
  11     -0.55493689237758
  12    -1.048785329158e-09
  13      0.50622514791168
  14     0.056176868582701
  15     -0.10538302987147
  16    1.9549568244448e-10
  17    0.0064167416576703
  18    1.0010521766203e-09
  19       0.1457434871976
  20     -0.26447823638038
  21    8.5070915620957e-10
  22    -0.071096147506596
  23    -1.4922782949582e-10
  24    -0.050405370300535
  25      -0.1674068586744
  26     -0.44802131881817
  27      0.30642429607561
  28     -0.29816583950044
  29    2.048777600084e-10
  30       -0.145277988026
  31      -0.4582095118381
  32    9.6641170074194e-10
  33    -0.022877506065661
  34      0.81364699280054
  35    8.9779423672719e-10
  36     -0.24416570174066
  37     0.042194936832916
  38    -0.050285535306572
  39    1.803030660672e-11
  40    -0.045074115966386
  41    -2.3505814251845e-10
  42      0.27747471569666
  43      0.31187796961536
  44    7.5191590336718e-10
  45    -0.097637051087186
  46    -5.5536152322088e-11
  47    -0.062590444149389
  48       1.2017182617053
  49     -0.16952552053255
  50     0.075367020019649
  51    -4.3326201536006e-10
  52    -0.075078146325011
  53     -0.15829458060545
  54    -1.6718880541926e-10
  55       1.2894670408029
 Sym= A
 Ene=              13
 Spin= Alpha
 Occup=    0.00000
   1    -0.076527643312694
   2     -0.31259906096415
   3      -0.3041237619116
   4      0.10834811510231
   5      -0.2769641197552
   6    2.1292318899602e-10
   7      0.57186423076067
   8      0.44130493722092
   9    5.1744022803019e-09
  10      0.21219088821873
  11     0.016242133848264
  12    -5.0500596388834e-09
  13     0.040406549562783
  14    -0.040630647368106
  15    0.0098278364152974
  16    1.4351126938559e-09
  17     0.054159595390242
  18    -1.4376886423988e-09
  19      0.14568252217689
  20     -0.25731532907114
  21    -4.2815595875358e-09
  22    -0.029761631287438
  23    -2.7840849664385e-10
  24      0.12406266635458
  25      0.47485222354179
  26      0.24246204896423
  27      0.19847349800828
  28      0.30543640123175
  29    5.3004535705511e-10
  30       0.3766501938466
  31    -0.064358857852624
  32    -5.6771742740369e-09
  33      0.38257353120827
  34       0.1162313903797
  35    6.8610265331565e-09
  36     -0.34038986054297
  37     -0.07689286971947
  38     0.095215780889964
  39    -1.3894625170168e-09
  40      0.10673489879681
  41    7.7006535176047e-10
  42      0.01595895331106
  43     0.063390068840871
  44    -2.1668551406168e-09
  45      0.07609674444814
  46    -2.119391181679e-09
  47      -0.2618201984301
  48     -0.32141205815597
  49     -0.07864510953711
  50    -0.057908837917736
  51    3.563726343145e-09
  52     0.044481339162365
  53    -0.094316402359691
  54    -3.9041460659475e-09
  55     0.072672040139392
 Sym= A
 Ene=              14
 Spin= Alpha
 Occup=    0.00000
   1      0.11054353594378
   2      0.30643215673372
   3    -0.043212128913407
   4      0.37802243359129
   5     -0.87346779617615
   6    2.2200137053914e-07
   7      0.16311754846528
   8       1.9027993669283
   9    -5.8348969595429e-07
  10     -0.87647661138354
  11    -0.070918177617312
  12    -8.6534367173859e-06
  13      0.01211922549017
  14    -0.096546455093837
  15      0.23449333531738
  16    -7.9065436835087e-08
  17     0.032142957819503
  18    -1.1070204851944e-07
  19      0.23741349676752
  20        -0.39520130257
  21    9.3406457121901e-07
  22     -0.16904470092933
  23    8.5931736985257e-07
  24    -0.049794986442888
  25     -0.15216086055723
  26      0.37650562046229
  27      0.25323973975949
  28     -0.10681325144321
  29    -3.0036794336293e-07
  30     -0.12235320474418
  31      -0.7665055685728
  32    -3.5116112749448e-07
  33    -0.074635266411949
  34     -0.12918413937395
  35    6.1045498324615e-06
  36    -0.014899406845648
  37    -0.010602658563729
  38    -0.019552851646688
  39    -4.9026614370343e-07
  40    -0.0096189676991415
  41    3.2259881600825e-07
  42      0.36401518525647
  43     -0.71373314335619
  44    4.4632362945781e-06
  45     -0.31120495764636
  46    -5.5222140403327e-07
  47      0.17672858257834
  48     -0.94304355272645
  49    -0.018595241959114
  50     0.091668655461451
  51    1.0196464975433e-06
  52     0.044180043155759
  53      0.43809312572444
  54    2.5270564905267e-06
  55     -0.38508572976212
 Sym= A
 Ene=              15
 Spin= Alpha
 Occup=    0.00000
   1      0.37776508448421
   2      0.68874828007385
   3      -3.3680400667363
   4      -3.4554055018194
   5    -0.095891003007519
   6    5.5344814672608e-07
   7     -0.11493828521887
   8        1.141164192705
   9    -1.8162408340476e-06
  10       2.4105572751907
  11     0.022192585910581
  12    5.810482370342e-06
  13      0.86991895259212
  14    -0.081808242494227
  15    -0.088441368061356
  16    5.2953597959307e-07
  17    -0.020611933415375
  18    1.6993175459741e-06
  19     -0.65063945679911
  20     -0.44513890522888
  21    -1.5283706750153e-06
  22     -0.11654818373571
  23    -1.0614096524176e-06
  24     -0.19703271773128
  25     -0.43182457240259
  26       4.2924514291012
  27       1.8937983028198
  28       1.0387636007567
  29    7.5276604218774e-08
  30      0.38868466905442
  31     -0.56498948009027
  32    -1.2222138511963e-06
  33       1.9793714681616
  34      0.35610762444105
  35    -2.2434684141295e-06
  36      0.54617800044648
  37      0.30503315787965
  38      0.15572067611904
  39    5.9368400720849e-07
  40      0.11812420525277
  41    -1.3358739073714e-07
  42      0.66996431049381
  43     0.030106658734659
  44    -5.7475594350491e-07
  45     -0.14054509401311
  46    -2.139193842039e-07
  47     -0.36755891385964
  48      0.84926766120192
  49    -0.036289375549664
  50      0.24736250280054
  51    1.0886982968589e-06
  52     -0.34410379289214
  53    0.00027619101729264
  54    -1.0494735748474e-06
  55      0.64792343619915
 Sym= A
 Ene=              16
 Spin= Alpha
 Occup=    0.00000
   1    -0.001278143401187
   2    -0.0044856550605146
   3    -0.0086761673434284
   4    -0.094722786027971
   5    -0.00053014737124152
   6     -0.23542316860634
   7    0.0023462477858204
   8    0.0078763286926511
   9     -0.29396164142213
  10    0.0037799557941993
  11    -0.0060687465976042
  12       2.0179996741342
  13     0.024991712491307
  14    0.00043239244978834
  15    -0.00099861098444955
  16     0.012771151091882
  17    0.00021583156421622
  18    0.0042545262244846
  19    0.0005622707191832
  20    -0.004796837344229
  21    -0.040487816113606
  22    -0.00015953274632273
  23    -0.0079992767456157
  24    0.00069717581571535
  25    -0.00093156344955806
  26    -0.0035362942972162
  27      0.19225696969762
  28    -0.0037930016554347
  29      0.11457871763427
  30    0.0042315913960413
  31    0.0069003624240236
  32     0.060463702020841
  33     0.015061336060877
  34      0.02607231675989
  35      -1.5770347337946
  36     0.016968749447644
  37    -0.0012017194422164
  38    -0.00028684916424209
  39    0.00025453553037847
  40    0.0011057761503287
  41    0.0024678661284759
  42    0.0039406407237975
  43    0.0031204648157809
  44    -0.064133472607239
  45    0.0025500728179417
  46    -0.020310398485966
  47    0.0023124850345631
  48    -0.018650541727839
  49    -0.079646015309394
  50    -0.00065287507449512
  51    0.0008098894377067
  52    0.00040756219488769
  53      0.01261045089422
  54    0.0031480942670168
  55    -0.0046471086715615
 Sym= A
 Ene=              17
 Spin= Alpha