[Molden Format]
made by pyscf v[2.13.1]
[Atoms] (AU)
O   1   8     0.21099695469856     0.00000000000000     2.15462460678861
N   2   7    -0.44776862100326     0.00000000000000    -0.03589262653049
H   3   1     1.18163474748449     0.00000000000000    -1.17386889907833
[GTO]
1 0
 s    8 1.00
                 11720  0.00070964594651845
                  1759  0.0054672722921914
                 400.8   0.027823118610189
                 113.7    0.10474773971146
                 37.03    0.28292084635691
                 13.27    0.44849523869833
                 5.025    0.27081688521277
                 1.013    0.01545029160744
 s    8 1.00
                 11720  -0.00031444341168873
                  1759  -0.0024821376810179
                 400.8  -0.012316355381583
                 113.7  -0.050538917343672
                 37.03   -0.13938490331632
                 13.27   -0.32507749481778
                 5.025   -0.22984830758785
                 1.013     1.0953793467883
 s    1 1.00
                0.3023                   1
 s    1 1.00
               0.07896                   1
 p    3 1.00
                  17.7   0.062679166281506
                 3.854    0.33353656587936
                 1.046    0.74123964163973
 p    1 1.00
                0.2753                   1
 p    1 1.00
               0.06856                   1
 d    1 1.00
                 1.185                   1
 d    1 1.00
                 0.332                   1

2 0
 s    8 1.00
                  9046  0.00069961741342552
                  1357  0.0053860546299287
                 309.3   0.027391021189057
                 87.73    0.10315059198201
                 28.56    0.27857066331743
                 10.21    0.44829484945412
                 3.838    0.27808592839527
                0.7466   0.015431561233271
 s    8 1.00
                  9046  -0.00030499009595337
                  1357  -0.0024080263785077
                 309.3   -0.01194444872518
                 87.73  -0.048925992909017
                 28.56   -0.13447272472496
                 10.21   -0.31511257770011
                 3.838   -0.24285783254964
                0.7466     1.0943822068542
 s    1 1.00
                0.2248                   1
 s    1 1.00
               0.06124                   1
 p    3 1.00
                 13.55   0.058905676772132
                 2.917    0.32046110671427
                0.7973    0.75304206179207
 p    1 1.00
                0.2185                   1
 p    1 1.00
               0.05611                   1
 d    1 1.00
                 0.817                   1
 d    1 1.00
                  0.23                   1

3 0
 s    3 1.00
                 13.01   0.033498726389998
                 1.962    0.23480080117413
                0.4446     0.8136829578829
 s    1 1.00
                 0.122                   1
 s    1 1.00
               0.02974                   1
 p    1 1.00
                 0.727                   1
 p    1 1.00
                 0.141                   1

[5d]
[7f]
[9g]

[MO]
 Sym= A
 Ene=               0
 Spin= Alpha
 Occup=    1.00000
   1    -0.0029909635769928
   2    -0.018179896128539
   3    -0.017635932429072
   4    -0.011862919049743
   5      0.52473361048725
   6    -1.2966360834075e-12
   7    -0.088519031298973
   8       0.3666442486034
   9    -7.8744813630675e-13
  10    -0.069067787067489
  11       0.1253057762559
  12    -8.7406691497313e-14
  13    -0.022447907977543
  14    -0.00057082359155779
  15    -0.002643457660804
  16    6.3279295169729e-14
  17    -0.00081716160147586
  18    1.6729375984668e-14
  19    0.0012868859394184
  20    -0.001701189726094
  21    7.1949559207213e-14
  22     -0.00152398259933
  23    1.5440943665593e-14
  24    -0.00054642591325091
  25      0.12917547560612
  26      0.27379651250085
  27      0.16427994410281
  28     -0.36266036933969
  29    -1.0779150242124e-12
  30    -0.048769765935456
  31     -0.22327645184014
  32    -5.6143783816232e-13
  33    -0.032581099112016
  34    -0.074963218189817
  35    -4.3952170358285e-14
  36    -0.0039002166540078
  37    -0.010898340771837
  38     0.022815648980821
  39    -8.2480198468745e-14
  40    -0.010574560110101
  41    -4.9844171104562e-14
  42    0.00032295846915213
  43    0.0026467823627971
  44    4.9425549867023e-15
  45    0.00027343306961506
  46    -3.003251292533e-14
  47     -0.27454242655422
  48      -0.1873501081569
  49    -0.037878724724099
  50    0.0026532885569193
  51    -3.0554546051446e-14
  52    -0.009146891541075
  53    -0.018534095306624
  54    -8.17581956786e-15
  55     0.019161031913778
 Sym= A
 Ene=               1
 Spin= Alpha
 Occup=    1.00000
   1    -9.7695785122932e-10
   2    -1.1161314276884e-11
   3    4.1666123000878e-11
   4    1.343888611704e-11
   5    5.1753497170547e-12
   6      0.48293643377382
   7    8.3234982542762e-12
   8    -1.7272858423004e-12
   9      0.29325120273613
  10    -1.4641691328802e-11
  11    -5.0699514782207e-13
  12     0.032802356604109
  13    -2.0199351595146e-12
  14    -9.0030715027826e-13
  15    -5.6497917094895e-13
  16    -0.023547370697403
  17    -6.9049404568978e-14
  18    -0.0062388229740347
  19    3.3397366473411e-12
  20    1.3583327765258e-12
  21    -0.026807233320924
  22    9.8697222261752e-15
  23    -0.0057340089517254
  24    3.5517376858597e-10
  25    2.2462834146105e-12
  26    -3.5867730303962e-11
  27    -1.0787690586359e-11
  28    -3.3893952268832e-14
  29      0.40143086921762
  30    -5.0957722880577e-12
  31    -8.0802416416969e-12
  32      0.20915817645098
  33    -2.1769145582452e-11
  34    -1.0599329842079e-12
  35     0.016157129053395
  36    -2.3864888111321e-12
  37    1.7382161751844e-13
  38    2.1320710517892e-13
  39      0.03072491661808
  40    4.5759697713887e-14
  41     0.018563257983275
  42    -5.6761700417218e-12
  43    -4.1408035809683e-12
  44    -0.0018467998350396
  45    -9.1163397256798e-13
  46     0.011167004887345
  47    9.1922400151278e-13
  48    2.1079519065293e-12
  49    9.5145049249398e-13
  50    1.0363028198483e-13
  51     0.011418005103861
  52    3.7774679147473e-13
  53    -5.3360520298708e-13
  54    0.0029799986058222
  55    1.3560172118245e-12
 Sym= A
 Ene=               2
 Spin= Alpha
 Occup=    1.00000
   1    0.0010558479189063
   2    -0.010815276446396
   3    -0.017594929174955
   4    -0.033267938452632
   5     -0.36400746651095
   6    3.3349922905134e-12
   7    -0.054479857744383
   8     -0.21187155786174
   9    2.0248668674707e-12
  10    -0.018045175528602
  11    -0.012164115380101
  12    2.2748749003348e-13
  13    0.0021509344444294
  14    -0.0038082044394122
  15     0.019094648655777
  16    -1.6261799682066e-13
  17    0.0052996725483288
  18    -4.3095409154842e-14
  19      -0.0111354105837
  20        0.020106764712
  21    -1.8502187731303e-13
  22    0.00046011428598537
  23    -3.954168249674e-14
  24    0.0029702221721578
  25    -0.010541480324621
  26     0.049349432077381
  27     0.045458370597786
  28     -0.36614806427647
  29    2.7722406237497e-12
  30      0.25041864348121
  31     -0.12566585256626
  32    1.4444958744093e-12
  33     0.035116726163166
  34    -0.0096249140209425
  35    1.1091563845223e-13
  36    0.0043365271919817
  37     0.024835868967031
  38    -0.0020769041175735
  39    2.1215949715007e-13
  40    -0.019427436249455
  41    1.2817822288599e-13
  42    -0.015006238727485
  43    -0.014680877592904
  44    -1.2649183591278e-14
  45     0.011627114942298
  46    7.7191622167619e-14
  47     -0.31689689811503
  48     -0.10009139554619
  49    -0.0072254732086449
  50     0.020060091626619
  51    7.8837599929192e-14
  52    -0.016855963947821
  53     0.003458378619455
  54    2.0490553383445e-14
  55    -0.015240722927995
 Sym= A
 Ene=               3
 Spin= Alpha
 Occup=    1.00000
   1    -0.0030262008288898
   2    -0.0073576427977345
   3     0.086343432099918
   4      0.12644475569017
   5      -0.1012022781374
   6    -3.128410348199e-12
   7      0.49204972134511
   8    -0.073908763629268
   9    -1.9000532427798e-12
  10      0.23388064792883
  11    -0.020466338984075
  12    -2.1199201134249e-13
  13    0.00041936497287863
  14    -0.020952139288469
  15    -0.00078535195519359
  16    1.5246456307725e-13
  17    0.00095177042299792
  18    4.0368182541312e-14
  19    -0.0044968481134203
  20    0.0049392446966596
  21    1.7395633020091e-13
  22    0.00075150986969951
  23    3.7311580642085e-14
  24    -0.007831977931625
  25     0.035493536934895
  26      0.12631705433329
  27    -0.035452029060042
  28     -0.23584783438895
  29    -2.6007760211458e-12
  30     -0.39542470127026
  31       -0.126721403688
  32    -1.3547704502771e-12
  33     -0.13750541302821
  34    -0.017464354988206
  35    -1.0575539589708e-13
  36    -0.022997214450969
  37    -0.014296751352804
  38    -0.036839444907916
  39    -1.9909988809124e-13
  40    -0.0097056135425806
  41    -1.2024951872376e-13
  42    0.0088064173544675
  43    -0.0012777798209235
  44    1.2286214833521e-14
  45    -0.011018575294934
  46    -7.238179971781e-14
  47     0.093517508721122
  48     0.057298411778665
  49    0.0045574339179209
  50      -0.0107600000181
  51    -7.3978730173136e-14
  52    -0.0050316817026413
  53    -0.013078213903583
  54    -1.8961969878266e-14
  55    0.0029359787611474
 Sym= A
 Ene=               4
 Spin= Alpha
 Occup=    1.00000
   1    0.0038640190994135
   2      0.13404141627309
   3      0.26829347748364
   4      0.11160903776012
   5      0.16542863191025
   6    -3.8640741707427e-12
   7      0.20321956985919
   8     0.077361950093664
   9    -2.3454845336762e-12
  10       0.0583938761305
  11    0.0054616563974021
  12    -2.6304889295478e-13
  13    -0.015321822350442
  14    -0.013688363501374
  15    -0.0099936532598087
  16    1.8841967020723e-13
  17    -0.0024268429736862
  18    4.995903072624e-14
  19    -0.0074562393148013
  20    -0.0025481490980747
  21    2.1423791969326e-13
  22    -0.003933777014923
  23    4.5685280979086e-14
  24    -0.0035277389366793
  25     -0.44762183140549
  26     -0.42983738122688
  27    -0.087569871691525
  28     -0.00135538883912
  29    -3.211818095926e-12
  30      0.03001277956213
  31     0.038372376645344
  32    -1.6740218981097e-12
  33    -0.020320670823309
  34    -0.0049186610670774
  35    -1.2859068475273e-13
  36    -0.014023301886548
  37    -0.0052941104712841
  38     0.008043574642697
  39    -2.4583402288324e-13
  40    0.0022707356483844
  41    -1.4854151704954e-13
  42     -0.01546469122797
  43    -0.018629416979735
  44    1.4279405052725e-14
  45     0.016635894480503
  46    -8.9450287497272e-14
  47     -0.19093453079861
  48    -0.0050382220593381
  49     0.003913899824635
  50     0.024171929804754
  51    -9.1351021885434e-14
  52    -0.013775860849217
  53    -0.0037730583164033
  54    -2.4027438338108e-14
  55    0.0059378318003239
 Sym= A
 Ene=               5
 Spin= Alpha
 Occup=    1.00000
   1    -0.0079870291343746
   2      0.46823434451742
   3      0.55722892022311
   4      0.08890415099792
   5    -0.018369124690935
   6    -9.3612057651863e-13
   7     0.032526590267194
   8    -0.011935235653695
   9    -5.6883501929989e-13
  10    -0.0001450641515586
  11    -0.0017245342614683
  12    -6.3510197456982e-14
  13    0.0027302978690091
  14    0.0051992530913777
  15    0.0050149682769523
  16    4.5641606868763e-14
  17    -0.0028090905001037
  18    1.2069466726507e-14
  19    0.0071623282460136
  20    0.0036646327661823
  21    5.2013991718571e-14
  22    -0.0014024868521986
  23    1.1278452455723e-14
  24    0.00058771481553056
  25      0.12684037946649
  26    -0.014403317736667
  27    -0.031419000221894
  28     0.013204082536198
  29    -7.7817300069454e-13
  30      0.10195332038543
  31    -0.024074359566963
  32    -4.0541951796909e-13
  33    -0.049938573136544
  34    -0.001778374508575
  35    -3.1515258473833e-14
  36    -0.016566111839527
  37     0.018910033474141
  38     0.011726959322086
  39    -5.9587916286644e-14
  40    -0.00076331268367589
  41    -3.5987463795983e-14
  42    -0.014268918450836
  43    -0.0095452147874177
  44    3.9483778235512e-15
  45    -0.0039732859937814
  46    -2.1708977821075e-14
  47     0.013548862548016
  48    -0.019865380560216
  49    0.00018444450595913
  50    -0.0046948209937935
  51    -2.2091627240591e-14
  52    0.0050424983722337
  53    0.0083416536314823
  54    -5.6133165076095e-15
  55    -0.0054679521416509
 Sym= A
 Ene=               6
 Spin= Alpha
 Occup=    1.00000
   1     0.026272123955694
   2    -0.0021895772038602
   3    -0.0024670113178308
   4    0.0015124648371705
   5    -4.0498803237205e-05
   6    -1.5818265992406e-10
   7    0.0023645280071285
   8    0.0002926421885292
   9    -9.6055219704379e-11
  10    0.0025002023816035
  11    -0.00022664652149995
  12    -1.0746195310172e-11
  13    -0.00039251224224213
  14    -0.00091819557858144
  15    -0.00046612918457958
  16    7.7120096391048e-12
  17    -2.9559690838216e-05
  18    2.0432306499175e-12
  19    -0.0014276353807295
  20    -0.00099207503055289
  21    8.7834866132387e-12
  22    -0.00026084240228279
  23    1.8788437722424e-12
  24       1.0053264780441
  25     0.011865357233104
  26    -0.019041159941038
  27    -0.0070596948926563
  28    0.0015825420870681
  29    -1.3148603035155e-10
  30    -0.00067380627850628
  31     -0.00511269041297
  32    -6.8504781911395e-11
  33    0.00065047388297951
  34    -0.0018681968704289
  35    -5.2906031469936e-12
  36    0.00061952786393068
  37    0.00070678885303735
  38    -0.00027763100225482
  39    -1.0063588324102e-11
  40    0.00033001976380099
  41    -6.0802314168024e-12
  42    -0.0013398825227169
  43    -0.00017307357608047
  44    6.0732120016595e-13
  45    -0.00054606524603019
  46    -3.6565556953932e-12
  47    0.00032870866601222
  48     0.014009173023605
  49    0.0015055949858633
  50    0.0010776892553219
  51    -3.7400150826286e-12
  52    -0.00063051651318283
  53    -0.0050697019612139
  54    -9.7648895966935e-13
  55    0.0033707396685666
 Sym= A
 Ene=               7
 Spin= Alpha
 Occup=    1.00000
   1       1.0057096263657
   2     0.012657038889178
   3    -0.039413056926723
   4    -0.011112392762036
   5    -0.00064685646742319
   6    4.7325318463865e-10
   7    -0.0025858275889828
   8    0.0044785567351031
   9    2.8737124090503e-10
  10     0.017744767025873
  11    0.00077823172595092
  12    3.2144610717883e-11
  13    0.0017425680101386
  14    0.00039706645545539
  15    0.00020206790095024
  16    -2.3075189148332e-11
  17    1.9458772143305e-06
  18    -6.1137446591129e-12
  19    -0.0038810413610543
  20    -0.0018454269098487
  21    -2.6269723356214e-11
  22    -0.0001346284076359
  23    -5.6190546286081e-12
  24    -0.026517244120815
  25    -0.0010672433108166
  26      0.02794538093558
  27    0.0077960839550779
  28    0.0006056757734316
  29    3.9338185396557e-10
  30    0.0009091217584995
  31    0.0062412731953325
  32    2.0496437836578e-10
  33      0.02093156335513
  34    0.00016486302930741
  35    1.5833123400022e-11
  36    0.0023089253880178
  37    -0.0002460801125738
  38    -0.00038780385986919
  39    3.0108845136557e-11
  40    0.00012431965694741
  41    1.8191050027028e-11
  42    0.0053569654692942
  43    0.0041013770502919
  44    -1.8097591629495e-12
  45    0.00072224544078042
  46    1.0943093481641e-11
  47    -0.0002598616125207
  48    0.0030218597875957
  49    -0.00046172663594135
  50    0.00023710519121704
  51    1.1189066948789e-11
  52    -0.00063839790520294
  53    -0.0013274819172045
  54    2.9202723028413e-12
  55    -4.0004438818154e-05
 Sym= A
 Ene=               8
 Spin= Alpha
 Occup=    0.00000
   1    0.0057518427277514
   2    0.00073427645122287
   3      -0.1872722008415
   4      -1.4891095860092
   5     0.052717486130479
   6    -1.1247921707843e-11
   7    -0.052387645498429
   8       0.1131163955979
   9    3.5769792378494e-11
  10     0.055028986428202
  11    -0.012826260258516
  12    4.9061204742096e-12
  13      0.27618258632555
  14    -0.0094440576395964
  15    0.00037835477596862
  16    1.0405204164579e-11
  17    0.00099184833679429
  18    7.6147703296812e-11
  19    -0.039102212921936
  20    -0.017779634214311
  21    -3.2294371645169e-12
  22    0.0063159829801954
  23    -5.7158038809458e-11
  24    -0.036474535849263
  25     -0.21425684654186
  26     0.018030242560884
  27       4.5306657791041
  28     -0.13776893988045
  29    1.3615992551896e-11
  30      0.12579874282733
  31      0.17905440178205
  32    -3.1648716097659e-11
  33      0.14697796703125
  34      0.50914810317921
  35    -2.5105547921472e-12
  36     0.026220127358809
  37    -0.0029701474297968
  38    -0.0049540651601272
  39    2.3333494165573e-11
  40    0.0091631183948464
  41    -3.0708391699771e-11
  42     0.088804075573694
  43    -0.043778481973458
  44    -3.8148145031517e-11
  45     0.026076538878396
  46    2.7302429483461e-11
  47      0.11363924087824
  48     -0.77827965601265
  49      -2.2821373883919
  50     0.033110836734806
  51    -2.3412304527466e-11
  52    -0.021598245545701
  53      0.56952541881482
  54    7.9591332453343e-12
  55      -0.2463563028908
 Sym= A
 Ene=               9
 Spin= Alpha
 Occup=    0.00000
   1    -8.0790370747706e-11
   2    -1.5146687487253e-10
   3    1.1386973925002e-09
   4    1.1940946922539e-09
   5    -6.387568437393e-11
   6     -0.46943058474534
   7    -4.2211093892375e-11
   8    3.4610183660939e-10
   9     -0.36368929306908
  10    -6.2730902754049e-10
  11    4.039849642509e-12
  12     -0.23649645177305
  13    -3.245213543745e-10
  14    -4.5208003463493e-11
  15    1.8370166715407e-10
  16    -0.0041923247680863
  17    1.7525528394752e-10
  18    -0.0029368539897136
  19    2.3369102688763e-10
  20    -3.3765828465202e-10
  21    0.00024164209999534
  22    -3.627239036554e-10
  23    -0.00021634731417873
  24    2.0654776907719e-10
  25    3.6824560856181e-10
  26    -1.9544410712739e-09
  27    -1.5065138605708e-09
  28    -7.4634408335161e-11
  29      0.47937826225573
  30    1.0581506677595e-10
  31    -1.2098788968567e-09
  32      0.39893594116092
  33    -5.8273133759784e-10
  34    -2.8459879687725e-10
  35      0.27119605685035
  36    -2.0046600695921e-10
  37    8.4594029426161e-12
  38    6.3237014775882e-11
  39    -0.024696907065564
  40    -8.7716607254439e-11
  41       0.0084327825623
  42    -4.9067461538619e-11
  43    -4.1853968376996e-10
  44    -0.024423608671762
  45    -1.9853739396353e-10
  46     0.025168738350049
  47    4.3850398436344e-10
  48    7.7016047858907e-10
  49    1.7986067458504e-10
  50    -2.098784475279e-10
  51     0.030436202810558
  52    1.9117474786773e-10
  53    -3.8597521842113e-11
  54      0.08333767578032
  55    2.8761875262393e-10
 Sym= A
 Ene=              10
 Spin= Alpha
 Occup=    0.00000
   1    0.00061917914897779
   2    -0.044193086799432
   3     -0.19983900029102
   4       1.4228726696609
   5      0.15872541951056
   6    3.0386453710162e-10
   7     0.028058698265848
   8     0.095144226201796
   9    2.2949898755617e-10
  10     0.023947421160735
  11     -0.36031845997169
  12    2.9333495133033e-10
  13     -0.45255925333113
  14    -0.0087289051640195
  15     0.012896199233406
  16    1.4518765927103e-09
  17    -0.0011910184095032
  18    -1.1588263750992e-09
  19    -0.040707972314172
  20    0.0046719785154305
  21    -1.2631908369399e-09
  22     0.016460260631736
  23    7.0802438471098e-10
  24    -0.0011541970564607
  25    -0.048684530678006
  26      -0.2118472167085
  27      -3.0795524247296
  28      -0.4635763398511
  29    5.370822402815e-11
  30      0.28084061771099
  31     -0.36813885723153
  32    -7.1996402373851e-10
  33      0.22330169747093
  34    -0.051654414907381
  35    2.9341333873792e-10
  36    -0.090954275493803
  37      0.03037886948589
  38    -0.050898785622777
  39    4.7953735652516e-10
  40    -0.0098711430694968
  41    -9.3863954647591e-10
  42    0.0037801866388036
  43    -0.060206449277621
  44    -6.1617023707489e-10
  45     0.072002995898268
  46    -1.9823798499472e-11
  47      0.54748339114952
  48       1.0026131541745
  49       1.1922091991826
  50     0.023933548450117
  51    9.1162034909545e-10
  52    -0.0051853717913494
  53    -0.039271003100597
  54    -8.340156068814e-10
  55      0.17745818529074
 Sym= A
 Ene=              11
 Spin= Alpha
 Occup=    0.00000
   1     0.023423972140479
   2      0.17605088796491
   3      0.27899284868935
   4       1.4155610131292
   5     -0.11347295373065
   6    -3.7222741020804e-10
   7     -0.45488432707087
   8      -0.2032405669309
   9    1.8811537760711e-09
  10      -0.3946192488734
  11     -0.60472088658915
  12    3.1888127668005e-10
  13     -0.50065714373432
  14    -0.022290722852778
  15    0.0052026185467443
  16    -9.96557645077e-11
  17    0.00028647637565988
  18    1.1018005351431e-09
  19     -0.10453382216086
  20     -0.01876573037471
  21    -9.920108098635e-10
  22     0.058684487979777
  23    -1.105922067117e-09
  24    -0.012015439913793
  25     -0.12624188868922
  26     -0.34763123843114
  27      -1.4408304479436
  28      -0.1597231277911
  29    4.7362982745456e-10
  30     -0.76365970782643
  31    -0.088197521062353
  32    -2.4904346247766e-09
  33     -0.41785038451322
  34      0.40608909584413
  35    -4.7784280404291e-10
  36     -0.15603990702819
  37    -0.036294192338774
  38    -0.051846614530387
  39    1.6547595515783e-10
  40    -0.028612931917534
  41    1.5684050018677e-10
  42    0.0033630633080914
  43     0.094537964473942
  44    -1.1052085810822e-09
  45     0.035548410794596
  46    -1.1522173918488e-09
  47      -0.1750210008192
  48     -0.01204663465271
  49    -0.057541762660263
  50     0.034122152655289
  51    -5.0767069326663e-10
  52      0.05102823646724
  53      0.28686108252297
  54    1.3174756103348e-09
  55      0.12743638605162
 Sym= A
 Ene=              12
 Spin= Alpha
 Occup=    0.00000
   1     0.022468533578872
   2    -0.059494529467527
   3     -0.67856307664406
   4     -0.30860657448455
   5     0.081422021107386
   6    -7.827946927432e-10
   7      0.37577594467395
   8      0.11053410899956
   9    4.7699637899479e-09
  10      0.50845114337466
  11     -0.45743195616096
  12    2.8567317642515e-11
  13      0.03197043949514
  14    -0.0062151878291651
  15     0.007652709452241
  16    9.091370505437e-10
  17      -0.0288108019379
  18    -1.9969281111018e-09
  19    -0.061978543807414
  20    -0.025862432236327
  21    -4.0539997629374e-09
  22    -0.0013911832557406
  23    -5.121029644434e-10
  24      0.17934390872628
  25      0.62843292927072
  26      0.82411505334625
  27       0.6966003910589
  28      0.25552338026919
  29    2.506034088077e-10
  30      0.10575175183311
  31       0.1345825419941
  32    -5.3753543164035e-09
  33      0.44624002953457
  34       0.6471119618139
  35    1.1298337289116e-09
  36     -0.12327612961075
  37     -0.10040840627172
  38     -0.02292512796531
  39    -2.6631156552737e-10
  40    -0.0030997762357156
  41    2.7313275290238e-10
  42      0.11400520896283
  43       0.1049173744554
  44    -2.9156689453322e-09
  45    0.0041291230316252
  46    -9.14761574857e-10
  47     -0.51566198450437
  48    -0.029465023268661
  49     -0.89168570145466
  50     0.099300506360919
  51    1.1673400853713e-09
  52    -0.00040838494167361
  53      0.58695818598617
  54    -6.6125363094092e-10
  55     0.047149383703848
 Sym= A
 Ene=              13
 Spin= Alpha
 Occup=    0.00000
   1     -0.14991994615171
   2     -0.47708916669457
   3     -0.24658725820744
   4       2.5635239851506
   5      0.31123073333251
   6    1.9384227980814e-09
   7     0.016683198226784
   8     -0.20678872377668
   9    1.0101225877626e-08
  10     -0.21668045467662
  11     -0.38750038086954
  12    -5.3094771374275e-09
  13     -0.71149770778309
  14      0.06191824642485
  15     -0.13009280396392
  16    4.6902033642098e-09
  17      0.19131895240203
  18    3.8285302299577e-10
  19     -0.12877313104293
  20     0.055628912179465
  21    -9.8548863176055e-09
  22      0.16945947845337
  23    -2.7412430032037e-09
  24     0.040647506855466
  25      0.12454987218105
  26     -0.07746212426262
  27      -1.4020021209348
  28      0.28969941478099
  29    3.8738914511041e-09
  30     0.014259262566955
  31      0.16012306457472
  32    -1.4588796067563e-08
  33      -0.2197415869398
  34     0.025111628178127
  35    1.3814897969186e-08
  36    -0.052076350870157
  37     0.053276928355871
  38     0.081844214856922
  39    -2.1721826071158e-09
  40     0.080822027640995
  41    1.8153405775315e-09
  42      0.23445641222594
  43    -0.092686482916957
  44    -8.1026318251022e-09
  45      0.10646862985519
  46    -5.5924424855822e-09
  47    -0.057791401112619
  48     -0.97303829251838
  49      0.23653597993048
  50    0.0065992596310946
  51    7.0355581149643e-09
  52    -0.020850984352185
  53      0.10538734272786
  54    -1.1445499929042e-08
  55     -0.38343179817552
 Sym= A
 Ene=              14
 Spin= Alpha
 Occup=    0.00000
   1      0.58642779546745
   2       1.0673373962695
   3      -5.2669351285583
   4      -3.7689100464154
   5    -0.041657011101857
   6    6.6166596533039e-07
   7      -0.1004953223407
   8       1.1975428019418
   9    -2.0797837433012e-06
  10       3.6481931568762
  11    -0.069799738960532
  12    1.0524594570481e-05
  13      0.75035431049935
  14     -0.27588398635246
  15    -0.080291294643626
  16    1.1727411541114e-06
  17    -0.053467647869538
  18    2.8048471678535e-06
  19      -1.1091483967806
  20     -0.56347902802775
  21    -3.5518852792577e-06
  22    -0.085353443300898
  23    -2.1621054891874e-06
  24     -0.32844459498321
  25     -0.66507791333576
  26       7.0682655377676
  27       1.8861201677413
  28      0.76421720482187
  29    2.0945377292126e-07
  30      0.86234053395914
  31      0.39784569653897
  32    -2.9525092049557e-06
  33       2.6683815070383
  34      0.52085830188747
  35    -4.393129936306e-06
  36      0.57281081534589
  37      0.34060461085472
  38     0.062176332956529
  39    7.6536887945908e-07
  40      0.12823181653025
  41    -2.2409114215392e-07
  42      0.90224258885376
  43      0.46615700920085
  44    -1.7161185679013e-06
  45     -0.01185494531321
  46    -5.9450197093165e-07
  47     -0.29599586074722
  48    -0.077286203479084
  49      0.14457725620591
  50      0.22531945743084
  51    1.7959139055787e-06
  52      -0.1687886008641
  53       0.3535082374659
  54    -1.8548512137497e-06
  55      0.32702681217358
 Sym= A
 Ene=              15
 Spin= Alpha
 Occup=    0.00000
   1      0.39240260904006
   2      0.81890595776277
   3      -1.8665615426081
   4      -2.1393553657127
   5    -0.052729111655916
   6    3.529387760359e-06
   7     -0.78598163179062
   8      0.49585111553796
   9    -9.3439222332351e-06
  10        1.977741181168
  11     0.071039725483963
  12    -0.00013738379724614
  13      0.26697399120711
  14      0.24104313987228
  15     0.076691176732423
  16    -1.1204796984127e-06
  17     -0.25390433424585
  18    -8.5323819621454e-07
  19     -0.56090807835826
  20       0.1016200376347
  21    1.447893361086e-05
  22     -0.19547312533875
  23    1.2535826867167e-05
  24      0.17158958633054
  25      0.35057071682732
  26       2.0309747454534
  27       2.3067510273237
  28      0.18856841168618
  29    -4.8600840137753e-06
  30      0.01757046108238
  31      0.53637768196377
  32    -7.3458085235517e-06
  33      0.98639497428378
  34      0.33247153899764
  35    0.00010064939883291
  36       0.4057227908866
  37     -0.48124091691795
  38     -0.14264400830412
  39    -7.7900940504708e-06
  40      0.19847362460818
  41    4.6407570411855e-06
  42       0.2716146255449
  43     -0.27725197287791
  44    7.0612778427465e-05
  45      0.23016819657514
  46    -8.2748426771397e-06
  47     -0.30266558925022
  48     -0.61432221028504
  49     -0.30253564424118
  50    -0.022487093897032
  51    1.2835765754163e-05
  52      0.02720922080245
  53      0.15588336713653
  54    4.1377727950218e-05
  55     -0.18840069065042
 Sym= A
 Ene=              16
 Spin= Alpha
 Occup=    0.00000
   1    -0.00092135874697555
   2    -0.0011952386889299
   3     0.010161136747621
   4    0.0022020079921134
   5    0.0020030676816994
   6     -0.22455692328787
   7    -0.00031442370227425
   8     0.001429683610746
   9     -0.28625032472191
  10    -0.0066367243696752
  11    -0.022262001084524
  12       2.0245923768388
  13    0.0090337998578527
  14    0.00031085720034214
  15    -0.00022081129896978
  16     0.013344098140969
  17    0.00029072556951829
  18    0.0030795208602511
  19    0.0017149567888467
  20    0.0012275516399821
  21    -0.039814399788014
  22    0.00010879841244666
  23    -0.0074326708558048
  24    -0.00025348258665841
  25    -0.00075601411748854
  26    -0.0090631044156707
  27    0.0067724297696687
  28    -0.00088670089191726
  29      0.10516561224288
  30    0.00020611098257193
  31    -0.0011457746160555
  32     0.052160948816892
  33    -0.0050344332572143
  34     0.022707650581496
  35      -1.5908152397508
  36    -0.012030575843101
  37    0.00039938514406387
  38    0.0005305717031081
  39    0.00022567169679715
  40    -0.00017029327402725
  41    0.0034586094470033
  42    -0.0021382717832596
  43    -0.00019395430418369
  44    -0.062360375619495
  45    -3.9550346163278e-05
  46    -0.018780235808159
  47    -0.00067638226276327
  48    -0.0040256704309909
  49    -0.0054931415488321
  50    -0.00070605448544331
  51    0.00069274015639737
  52    -0.00038159033186982
  53    -0.0039489535166136
  54    0.0030549652844359
  55    -0.0024197481479281
 Sym= A