[Molden Format]
made by pyscf v[2.13.1]
[Atoms] (AU)
O   1   8     0.21099695469856     0.00000000000000     2.15462460678861
N   2   7    -0.44776862100326     0.00000000000000    -0.03589262653049
H   3   1     1.18163474748449     0.00000000000000    -1.17386889907833
[GTO]
1 0
 s    8 1.00
                 11720  0.00070964594651845
                  1759  0.0054672722921914
                 400.8   0.027823118610189
                 113.7    0.10474773971146
                 37.03    0.28292084635691
                 13.27    0.44849523869833
                 5.025    0.27081688521277
                 1.013    0.01545029160744
 s    8 1.00
                 11720  -0.00031444341168873
                  1759  -0.0024821376810179
                 400.8  -0.012316355381583
                 113.7  -0.050538917343672
                 37.03   -0.13938490331632
                 13.27   -0.32507749481778
                 5.025   -0.22984830758785
                 1.013     1.0953793467883
 s    1 1.00
                0.3023                   1
 s    1 1.00
               0.07896                   1
 p    3 1.00
                  17.7   0.062679166281506
                 3.854    0.33353656587936
                 1.046    0.74123964163973
 p    1 1.00
                0.2753                   1
 p    1 1.00
               0.06856                   1
 d    1 1.00
                 1.185                   1
 d    1 1.00
                 0.332                   1

2 0
 s    8 1.00
                  9046  0.00069961741342552
                  1357  0.0053860546299287
                 309.3   0.027391021189057
                 87.73    0.10315059198201
                 28.56    0.27857066331743
                 10.21    0.44829484945412
                 3.838    0.27808592839527
                0.7466   0.015431561233271
 s    8 1.00
                  9046  -0.00030499009595337
                  1357  -0.0024080263785077
                 309.3   -0.01194444872518
                 87.73  -0.048925992909017
                 28.56   -0.13447272472496
                 10.21   -0.31511257770011
                 3.838   -0.24285783254964
                0.7466     1.0943822068542
 s    1 1.00
                0.2248                   1
 s    1 1.00
               0.06124                   1
 p    3 1.00
                 13.55   0.058905676772132
                 2.917    0.32046110671427
                0.7973    0.75304206179207
 p    1 1.00
                0.2185                   1
 p    1 1.00
               0.05611                   1
 d    1 1.00
                 0.817                   1
 d    1 1.00
                  0.23                   1

3 0
 s    3 1.00
                 13.01   0.033498726389998
                 1.962    0.23480080117413
                0.4446     0.8136829578829
 s    1 1.00
                 0.122                   1
 s    1 1.00
               0.02974                   1
 p    1 1.00
                 0.727                   1
 p    1 1.00
                 0.141                   1

[5d]
[7f]
[9g]

[MO]
 Sym= A
 Ene=               0
 Spin= Alpha
 Occup=    1.00000
   1    -0.0027150265246823
   2    -0.014252107118892
   3    -0.012952216032684
   4    -0.012214594681605
   5       0.5510117658133
   6    -6.0460856949542e-15
   7     -0.10064913770267
   8      0.38173438447278
   9    -3.7046369983504e-15
  10    -0.076507033310384
  11      0.12666083388909
  12    1.619178738625e-16
  13    -0.023099088833859
  14    1.8692124824371e-05
  15    -0.0038822013747884
  16    3.5584533116448e-16
  17    -0.0011823797422148
  18    6.1297189345588e-17
  19    0.0016849788876875
  20    -0.0029607158623392
  21    2.8196256802042e-16
  22    -0.0017191025999116
  23    9.8971241967653e-17
  24    -0.00055828921870663
  25       0.1100195356888
  26      0.24862770383067
  27      0.16013920485079
  28     -0.33410701108657
  29    -5.1225807534146e-15
  30    -0.041375484686319
  31     -0.20949220045523
  32    -2.5193004061152e-15
  33       -0.028370359411
  34     -0.07368804838864
  35    -6.65378242929e-16
  36    -0.0034989205939247
  37    -0.011642143386334
  38     0.024786052356201
  39    -3.6753315220035e-16
  40    -0.0091167551246777
  41    -2.3600028420104e-16
  42    8.2754712920806e-05
  43    0.0027043016447286
  44    -3.315698130496e-17
  45    0.00089428390732449
  46    -1.9508924117932e-16
  47     -0.27080605168871
  48     -0.18493768455211
  49    -0.037498440856283
  50    0.0031582604327308
  51    -4.0328230139658e-17
  52    -0.0086633740692191
  53    -0.018222876345111
  54    -2.3091658601213e-16
  55     0.019923998324703
 Sym= A
 Ene=               1
 Spin= Alpha
 Occup=    1.00000
   1    -2.2484977678837e-16
   2    6.2438728015588e-15
   3    7.1210752665954e-16
   4    -2.3169831804146e-14
   5    2.413224366208e-14
   6      0.48293643377382
   7    1.0490254251932e-14
   8    1.5378289547135e-14
   9      0.29325120273613
  10    1.0780628560681e-14
  11    3.3862411359495e-15
  12     0.032802356604109
  13    5.3997610373363e-15
  14    -2.8658702124073e-16
  15    -1.0856230656002e-15
  16    -0.023547370697403
  17    -2.8246628769482e-16
  18    -0.0062388229740347
  19    -8.9450557352623e-16
  20    -1.3860414143958e-15
  21    -0.026807233320924
  22    -1.3116870337345e-16
  23    -0.0057340089517254
  24    -2.6109087731089e-16
  25    -4.2450015764752e-15
  26    3.2361380092226e-15
  27    2.5966657589352e-14
  28    1.0985164533695e-14
  29      0.40143086921762
  30    -1.5771941285271e-14
  31    5.5938391052085e-15
  32      0.20915817645098
  33    5.6253784106259e-15
  34    3.6927481852067e-15
  35     0.016157129053395
  36    6.0929701988577e-15
  37    -1.1664032342749e-15
  38    2.1747231795563e-16
  39      0.03072491661808
  40    6.6102734913322e-16
  41     0.018563257983275
  42    2.5737649488429e-15
  43    2.7239771587622e-15
  44    -0.0018467998350396
  45    9.5759155676536e-17
  46     0.011167004887345
  47    1.163921918241e-14
  48    3.3620934527935e-15
  49    -3.484186272042e-15
  50    -8.8901909010112e-16
  51     0.011418005103861
  52    3.3996002298502e-16
  53    -2.0425293792275e-15
  54    0.0029799986058222
  55    1.1525195132793e-15
 Sym= A
 Ene=               2
 Spin= Alpha
 Occup=    1.00000
   1    -0.0027364099692306
   2     0.039513081623105
   3      0.12058759091482
   4     0.089405413208564
   5     -0.26680276364012
   6    9.2790887169075e-15
   7       0.3531068131267
   8     -0.16356418657301
   9    5.1360600158285e-15
  10      0.16859229546598
  11    -0.015527325581314
  12    1.6419912912684e-15
  13    0.00025456883465199
  14    -0.018414344992242
  15     0.011232307175641
  16    -5.1362411243438e-16
  17    0.0035771654593125
  18    -1.6778045038246e-16
  19    -0.0095673590101466
  20      0.01636068943911
  21    -2.0701884174344e-16
  22    0.00055486749834198
  23    7.4793308083278e-17
  24    -0.00056440755975945
  25     0.036278615640367
  26      0.13791014657239
  27    0.0055937300706348
  28     -0.42941759914235
  29    7.4886381043557e-15
  30     -0.14852158507161
  31     -0.19203288618951
  32    4.2126702833624e-15
  33    -0.094073265456831
  34    -0.024601370351071
  35    -9.8679866202935e-16
  36    -0.017631202893483
  37    0.0052162367851444
  38    -0.027241938799141
  39    5.2601326467468e-16
  40    -0.020153309142716
  41    3.4882653395945e-16
  42    -0.004031839222054
  43    -0.011111395742155
  44    3.2084815038095e-16
  45    -0.0016917916633185
  46    2.1974416677046e-16
  47     -0.13897319148368
  48    -0.030280381419873
  49    -0.0031656580216692
  50     0.003848396899593
  51    2.1210059831116e-16
  52    -0.014466360995065
  53    -0.0084868267294881
  54    2.733547968849e-16
  55    -0.0062491810282447
 Sym= A
 Ene=               3
 Spin= Alpha
 Occup=    1.00000
   1    0.0019191426856533
   2    -0.016196518758007
   3    -0.094165891931575
   4      -0.1160733454565
   5     -0.23703559365804
   6    2.215368165376e-14
   7     -0.36820480341409
   8     -0.12573420851309
   9    1.3420431835773e-14
  10     -0.16470024113318
  11    0.0038799779328774
  12    2.0468498648808e-15
  13    0.0030385801371594
  14      0.01150332257758
  15     0.016669734142851
  16    -1.0398196935567e-15
  17     0.003830504324937
  18    -2.7210060533809e-16
  19    -0.0049802065684415
  20     0.013065751142888
  21    -1.3163639729297e-15
  22    0.00035126681194444
  23    -2.9857451132856e-16
  24    0.0035695356472985
  25     0.027621236247319
  26     0.017668107940889
  27     0.069761603087362
  28     -0.14744409827304
  29    1.8688761630299e-14
  30      0.43376795519262
  31    -0.028976076242387
  32    9.657693827442e-15
  33      0.11289003600944
  34     0.002728470653443
  35    7.9016106093746e-16
  36     0.018916101846507
  37     0.028845300160513
  38     0.020246326646446
  39    1.4366863633614e-15
  40    -0.0097236578980063
  41    8.4175344490686e-16
  42    -0.015354965657803
  43    -0.0084982553365297
  44    -1.4536664382687e-16
  45     0.013756856179226
  46    6.0483700355368e-16
  47     -0.28527571927741
  48     -0.11535566003416
  49    -0.0094078005531488
  50     0.019300848995545
  51    5.249565752621e-16
  52    -0.0085204238987848
  53     0.010998728672944
  54    -1.1759614150013e-16
  55    -0.014268780908867
 Sym= A
 Ene=               4
 Spin= Alpha
 Occup=    1.00000
   1    0.0031544850519665
   2      0.19057040765332
   3      0.32422782297314
   4      0.10663536831159
   5      0.12169273823847
   6    -5.5396439889654e-15
   7      0.15614217978013
   8     0.051169374337755
   9    -2.5293304616476e-15
  10     0.036333848196472
  11     0.001411007979221
  12    -9.4873097853334e-16
  13    -0.013757043698141
  14    -0.011102401026462
  15    -0.0075368835413903
  16    2.845523480194e-16
  17    -0.0023805908150165
  18    1.1262698432682e-16
  19    -0.0069414524973538
  20    -0.00088230309259756
  21    5.1279325424083e-17
  22    -0.0040226419805087
  23    -1.1643973116422e-16
  24    -0.00046303095171495
  25     -0.43369888295979
  26     -0.44324834772464
  27    -0.089344042395443
  28    0.0078008319872684
  29    -4.4532311139324e-15
  30      0.10138137030341
  31     0.045426022752834
  32    -2.8950074630238e-15
  33    -0.0090998000866102
  34    -0.0013153856364497
  35    5.4192737644168e-16
  36    -0.013173015377079
  37    0.00086606908587092
  38     0.011855030882976
  39    -3.4899798360528e-16
  40    0.0019413312345644
  41    -2.2728609801458e-16
  42    -0.019019513028785
  43    -0.020644814733294
  44    -4.3958053779995e-16
  45     0.017824169319301
  46    -2.2091026889547e-16
  47     -0.20954238601745
  48    -0.013619629470582
  49    0.0043092554487516
  50     0.025698625007881
  51    -1.2281712405646e-16
  52    -0.013423940971991
  53    -0.00046536007348241
  54    -2.2851908987973e-16
  55    0.0029679093634746
 Sym= A
 Ene=               5
 Spin= Alpha
 Occup=    1.00000
   1     -0.01007875635569
   2      0.44647006061373
   3      0.51177036704172
   4     0.067911006584723
   5    0.0001828210018256
   6    -3.6457428555082e-15
   7    -0.022525998513076
   8    0.0023771257232577
   9    -2.625669232778e-15
  10    -0.022117943461191
  11    0.00031798166963014
  12    -1.8351443211237e-16
  13    0.0043429347204691
  14     0.008600554160421
  15    0.0046262171014074
  16    1.9221750944788e-16
  17    -0.0029836666395226
  18    2.6858603903513e-17
  19    0.0092721529924173
  20    0.0019044531706318
  21    2.0671621844107e-16
  22    -0.00098330187640859
  23    2.0121476020538e-16
  24      -0.0150502730019
  25      0.17924987488709
  26     0.027224764029074
  27    -0.021069898338606
  28       0.0595792053255
  29    -3.0709272946351e-15
  30      0.10262167144074
  31    -0.0095716297990174
  32    -1.5832178333486e-15
  33    -0.040372894264012
  34    0.00074379684888501
  35    -2.9672489961582e-16
  36    -0.013404952138488
  37     0.018148657917256
  38     0.013318667160199
  39    -2.5929721125482e-16
  40    0.0012478872866767
  41    -1.4268343514056e-16
  42    -0.011466704268966
  43    -0.005763850099413
  44    3.6881513871015e-16
  45    -0.0062063618026654
  46    -1.5573993692154e-16
  47     0.056935164483182
  48    -0.015040195423081
  49    -0.00010819642307044
  50    -0.0086071395739909
  51    -4.2533645730256e-17
  52    0.0084489827516577
  53    0.0093443762665941
  54    1.5148260926565e-16
  55     -0.00505569441364
 Sym= A
 Ene=               6
 Spin= Alpha
 Occup=    1.00000
   1    -0.088543664666088
   2    0.0029644616828023
   3     0.008798009390377
   4     0.002861638308441
   5    -7.103184379567e-05
   6    3.5114930421064e-17
   7    -0.00079115965412308
   8    -0.00012085146587107
   9    -2.674928551052e-15
  10    -0.0012439129937079
  11    -0.0002258432720577
  12    -1.9792625196413e-15
  13    -0.0004835228293839
  14    -0.00068419724085918
  15    -0.0003747880330852
  16    -7.7768299445047e-16
  17    -7.1420811089083e-05
  18    -2.5218361332656e-16
  19    -0.0007980214383544
  20    -0.00075400162362975
  21    2.931111905016e-15
  22    -0.0002527463869938
  23    7.0584612208116e-16
  24       1.0017313001872
  25     0.015605405716329
  26    -0.021234462857029
  27    -0.0078010323646078
  28    0.0034461016688278
  29    4.8566005735698e-17
  30    0.0029255320956309
  31    -0.0054451653392569
  32    3.6007110545645e-15
  33    -0.0015755495811067
  34    -0.0017648045753856
  35    1.5553924446145e-15
  36    0.00030280444656441
  37    0.0011117849831847
  38    0.00014271556412947
  39    1.5914015969108e-16
  40    0.00036674053515632
  41    4.3018047040074e-17
  42    -0.0021333762637836
  43    -0.00068283395323086
  44    2.4023156524708e-15
  45    -0.00069855400590973
  46    1.1170122733315e-15
  47    0.0010538067026074
  48     0.013006086857171
  49    0.0015100456927174
  50    0.00091752671622819
  51    -1.202907369621e-16
  52    -0.00037230216011493
  53    -0.0046625162916023
  54    -4.0864895199129e-16
  55    0.0032366484321117
 Sym= A
 Ene=               7
 Spin= Alpha
 Occup=    1.00000
   1       1.0021327076959
   2     0.013747528945634
   3    -0.037873391441878
   4    -0.010738607553906
   5    -0.00067925799617437
   6    1.3421680775806e-16
   7    -0.0026791266941675
   8    0.0044818386613532
   9    -2.7666328172087e-16
  10     0.017702590057584
  11    0.00075699985585823
  12    -2.513568982137e-16
  13    0.0017022124232495
  14    0.00032988912855435
  15    0.00016781204879494
  16    -5.6663156223101e-17
  17    -1.02382096769e-05
  18    -4.562160808191e-17
  19    -0.0039875770643781
  20    -0.0019387658396594
  21    3.3293602875397e-16
  22    -0.00016654687517833
  23    6.2457828995104e-17
  24     0.088102485805754
  25    0.00089033770842283
  26     0.025665954900132
  27    0.0069118326912894
  28    0.0010314439081167
  29    9.790089220189e-17
  30    0.0014244612476398
  31    0.0056291991026975
  32    4.5408779264172e-16
  33       0.0208259259536
  34    -3.8333943511812e-05
  35    1.3938162389255e-16
  36    0.0023365792705324
  37    -9.2194716442182e-05
  38    -0.0003547189406648
  39    1.3261572207231e-17
  40    0.00016638948547363
  41    9.6536516031291e-18
  42     0.005126357298595
  43     0.004036159501457
  44    2.8627195363817e-16
  45    0.00064223859805829
  46    1.2657975024827e-16
  47    -0.00013476970163999
  48    0.0044974463736922
  49    -0.00029205735252907
  50    0.00033824614291511
  51    -8.9544656390408e-18
  52    -0.00067809836113707
  53    -0.0018578273265567
  54    -2.0680491650074e-17
  55    0.00032261056485845
 Sym= A
 Ene=               8
 Spin= Alpha
 Occup=    0.00000
   1    0.0026208635796629
   2    0.0078737284271819
   3    -0.023275667294206
   4      0.22089472993538
   5     -0.23066986997967
   6    1.7466177681944e-14
   7     0.014080815480399
   8     -0.23572446716456
   9    2.500257663347e-14
  10    -0.0038091139793038
  11       1.8070605863593
  12    -2.0241003005012e-13
  13     -0.29448236357416
  14     -0.00327404209465
  15    0.0042808093789628
  16    -1.1721464946672e-15
  17    0.0011392168152872
  18    -4.7147280254954e-16
  19     0.024171357608064
  20    -0.064906667913832
  21    2.8324402030301e-15
  22     -0.01195384916311
  23    -8.012777393136e-17
  24    -0.0013636801877392
  25    -0.041262875094159
  26    -0.086029247666589
  27      0.66630275999795
  28     0.056507744158104
  29    -6.5546363099922e-16
  30    -0.037679606434002
  31     0.087179145399094
  32    6.4741287988446e-15
  33    -0.082546297297862
  34      -1.5140590803393
  35    1.3993011532762e-13
  36    -0.059180072396086
  37    -0.0074688275142021
  38     0.014574682847717
  39    5.6038533281061e-16
  40    0.0070096659782468
  41    1.4178612054951e-16
  42      0.06481109909062
  43    -0.044399759422824
  44    1.8676536020344e-15
  45    -0.030924786088366
  46    3.034035383148e-15
  47    -0.018711125827719
  48     -0.22046351130345
  49     -0.40502325204452
  50    0.0088924493414552
  51    1.1551183814587e-17
  52      0.01820092313649
  53      0.19183976403445
  54    -3.1428948541449e-16
  55     0.099060058523261
 Sym= A
 Ene=               9
 Spin= Alpha
 Occup=    0.00000
   1    3.1361265457001e-16
   2    -7.7898191737869e-16
   3    -7.311909789893e-15
   4    -1.3190963687347e-14
   5    5.956999810636e-15
   6     -0.46907785131481
   7    1.5492450264243e-15
   8    5.2218544147531e-15
   9     -0.35859737484851
  10    3.9276674859544e-15
  11    -1.3146878767222e-14
  12     -0.28034307863539
  13    9.4284134140153e-15
  14    -1.0546715230393e-16
  15    3.9239073778798e-16
  16    -0.0023996850692733
  17    1.9295512579124e-17
  18    -0.0002201537056859
  19     -1.4369959553e-15
  20    -2.4734561580374e-16
  21    0.0029734976112398
  22    -9.0895353171341e-16
  23    -0.0033536367823314
  24    1.6536764712087e-15
  25    3.5582815540391e-15
  26    2.0003257517876e-15
  27    -2.3127583600919e-14
  28    -9.038758006186e-15
  29      0.44216339983522
  30    8.6583044859724e-15
  31    -4.5006395393745e-15
  32      0.39456977016151
  33    1.1046209552472e-14
  34    6.0765950003005e-15
  35      0.39802427110783
  36    7.2695871736312e-15
  37    3.2391946184271e-16
  38    -8.0758961914693e-16
  39    -0.021280663526504
  40    4.5319539159085e-17
  41    0.0081570463321886
  42    1.7678521151073e-15
  43    -6.0342651654645e-16
  44    -0.021036630004451
  45    -9.1477538495374e-16
  46    0.0052721573271157
  47    4.681147040614e-15
  48    3.047078781503e-14
  49    2.4379342536213e-14
  50    8.7466827051897e-16
  51     0.023839198937643
  52    -5.403175030627e-16
  53    2.4597336790078e-15
  54     0.072845719486112
  55    -3.3230148579867e-15
 Sym= A
 Ene=              10
 Spin= Alpha
 Occup=    0.00000
   1    0.0094706066849949
   2      0.12967177937657
   3      0.39655449658799
   4      0.91219029238957
   5     -0.02702842592848
   6    1.162616928626e-14
   7     -0.28329017465406
   8     -0.10753235686002
   9    1.9223155680764e-14
  10     -0.32656504370912
  11      0.10975232573388
  12    -4.815231016956e-14
  13     -0.33540329014729
  14    -0.019087814374635
  15    0.0083927370991972
  16    1.9209714157731e-16
  17    0.0081187168388937
  18    3.400253739309e-16
  19    -0.021955482636192
  20     -0.01040239024622
  21    -3.9720660869339e-15
  22     0.013554973469528
  23    7.0604657991903e-17
  24    -0.0074062465916058
  25     -0.17578030187278
  26     -0.56072757453346
  27      -1.3392806161681
  28     -0.49373545480394
  29    -9.3951127469107e-15
  30     -0.13853997667682
  31     -0.23724619168236
  32    -9.078169610208e-15
  33     -0.25667866316872
  34     -0.14283703784359
  35    4.7581515931425e-14
  36     -0.38054892889381
  37     0.030996913822765
  38     -0.01133144316688
  39    -1.2364229302532e-15
  40    -0.0017414673062074
  41    -9.2996462763862e-16
  42     0.049036519866623
  43    -0.032475388834156
  44    -5.0980629966808e-15
  45    -0.0045790186030347
  46    3.9566225109839e-15
  47      0.19556787112444
  48      0.58854478870154
  49      0.36645889430253
  50     0.029717904902972
  51    -1.1092425361054e-15
  52    -0.031413124211391
  53      0.25533758270008
  54    -1.7950826478382e-14
  55    -0.043198775119463
 Sym= A
 Ene=              11
 Spin= Alpha
 Occup=    0.00000
   1       0.0164769809753
   2      0.21535806742933
   3      0.63069634005101
   4      0.72476996150013
   5     -0.15339872098539
   6    -5.9375353045438e-15
   7     -0.42218960026798
   8     -0.11250913301756
   9    -4.6944350540211e-15
  10     -0.49173722775343
  11     -0.22609962650995
  12    -5.2900425768533e-15
  13     -0.27836464840159
  14     -0.01429029969948
  15    -0.017823532613687
  16    1.4392052832662e-15
  17    -0.0036505809158762
  18    6.2567537714993e-16
  19    -0.047470415289224
  20    -0.024273168603882
  21    -1.8440849232806e-15
  22     0.011487126510841
  23    -5.2423490210128e-15
  24    -0.018562743646917
  25     -0.13447393866036
  26     -0.40847294593195
  27     -0.74780644510222
  28      0.10449320397277
  29    -1.7639194997455e-14
  30     -0.72084402091432
  31    -0.063821754145545
  32    -2.6586953979208e-15
  33     -0.54943712938349
  34     0.042337562928849
  35    6.2241131915045e-14
  36     -0.12516407941137
  37     0.034853254383823
  38     0.011032300988827
  39    9.744207407482e-17
  40    -0.0066561507659923
  41    -9.7073052694473e-16
  42    -0.0053543115069556
  43    -0.0038451556370474
  44    -2.7313121152043e-15
  45    -0.0066831465282013
  46    -8.580463417312e-16
  47     -0.12641206576668
  48     -0.51134330507959
  49     0.059388827201209
  50    -0.045432985067035
  51     1.74246822763e-15
  52    -0.0030940064394905
  53    -0.088231820457257
  54    -2.3289542407754e-15
  55    -0.085236561403793
 Sym= A
 Ene=              12
 Spin= Alpha
 Occup=    0.00000
   1    -0.031830152823183
   2     -0.11115868025096
   3     -0.14627239802283
   4     -0.10796356693285
   5    -0.011300648474916
   6    -8.162000963278e-15
   7     -0.17459345004988
   8     0.049103863514989
   9    1.1123925364578e-15
  10     -0.24720900091325
  11     -0.35484984715344
  12    5.5624995100947e-14
  13      0.20764492671343
  14    0.0040896363813463
  15    -0.022249154421377
  16    -1.0945244921938e-16
  17     0.023177935926976
  18    -2.3567557150557e-15
  19     0.030408647970375
  20    -0.019942265921246
  21    -4.2014439672807e-15
  22       0.0307982739166
  23    -7.148826236264e-15
  24     -0.21496341947901
  25     -0.69013307824087
  26     -0.67968000365766
  27      0.94387005503404
  28     0.070907809391475
  29    -4.088370173256e-15
  30     0.037358868124566
  31     -0.25476616086587
  32    -1.1823407220123e-14
  33     0.034836759411321
  34      0.16743042942992
  35    -4.0632721059468e-14
  36       0.2689999518804
  37     0.012007507309648
  38     0.031625525212888
  39    1.1989174383796e-15
  40     0.024402031032018
  41    1.7414337619345e-17
  42    -0.017235941576302
  43     0.033294659028221
  44    -5.4866310606047e-15
  45    -0.0095013348448294
  46    -2.9938393931025e-15
  47     0.079514845243134
  48      0.69648367014337
  49     -0.19740062912492
  50     0.015580572122935
  51    9.770884994212e-16
  52    -0.0049654169944368
  53     -0.51945968004604
  54    1.6187926608763e-14
  55      0.21366690214175
 Sym= A
 Ene=              13
 Spin= Alpha
 Occup=    0.00000
   1     -0.12913373873447
   2     -0.41686232022755
   3     -0.60743866971098
   4       4.1842840658953
   5     0.015596868283342
   6    -2.4900065413299e-14
   7      0.16857359847656
   8    -0.072524270234149
   9    4.6085884815413e-14
  10      -0.2739679264674
  11     -0.19075638956458
  12    -8.1535861339642e-14
  13      -1.0008982776393
  14     0.021539672738662
  15    -0.040966521649399
  16    -8.6626368281086e-15
  17       0.2413407008374
  18    4.6375335040449e-15
  19     -0.18708364732565
  20     -0.13434226962484
  21    1.6955010708941e-14
  22      0.22796504187737
  23    -4.22279072803e-14
  24      0.22249654412698
  25      0.55235321710133
  26     -0.52845496996177
  27      -3.4027043261628
  28      0.15155867649512
  29    -6.3511569125374e-14
  30      0.11640717788559
  31      0.10984217954669
  32    2.6887960288552e-14
  33     -0.10843647152033
  34     -0.28982230738641
  35    1.9955513486619e-13
  36     -0.83934071338316
  37      0.13764009936303
  38    0.0097954138967523
  39    1.4244770740444e-14
  40     0.018809004569675
  41    7.6006367979758e-15
  42       0.4515981295832
  43      0.28079394403232
  44    -1.9186968916592e-14
  45      0.12465830165167
  46    2.4645648886943e-14
  47     -0.15787995060465
  48      -0.2945894738005
  49      0.53890019425137
  50    -0.034021137611029
  51    6.1864355043349e-15
  52    -0.040358699901901
  53    -0.016983243964564
  54    -9.5984990621557e-14
  55     -0.36020910094089
 Sym= A
 Ene=              14
 Spin= Alpha
 Occup=    0.00000
   1     -0.53152122153462
   2      -1.0380971062769
   3       2.9355272009558
   4       3.5584287962741
   5     0.046214101182638
   6    4.860367541285e-14
   7      0.19978262066868
   8     -0.94737844380022
   9    2.2536768144166e-14
  10      -2.6170526393877
  11    -0.060222522245198
  12    -3.5783366174263e-13
  13     -0.70922692838934
  14      0.30790189812907
  15      0.12566342451917
  16    -1.1571873310531e-13
  17     0.094114939295797
  18    3.0673410086368e-14
  19      0.92528445756644
  20       0.5362487589787
  21    1.1959216098536e-14
  22      0.14200592718743
  23    6.5499961531994e-14
  24     -0.54209879019209
  25      -1.1524985587518
  26      -1.7247160812928
  27       -1.724456407723
  28     -0.79080346529214
  29    -3.9268750174244e-13
  30      -0.7083110420381
  31      0.51934413842286
  32    2.970912587893e-13
  33      -1.6572673507753
  34     -0.14881901870027
  35    5.1160446007254e-13
  36      -0.6551425267322
  37     -0.26810822393349
  38     -0.10994155653953
  39    8.9889477985832e-14
  40    -0.0037642270095758
  41    -1.5418499492322e-13
  42     -0.26151986881693
  43    -0.0061668328228179
  44    -5.376776492915e-14
  45       0.1188119327439
  46    2.7431370183826e-14
  47      0.21082778327983
  48       -1.910276803514
  49    -0.088073736750522
  50     -0.29325748035003
  51    2.7239545091725e-13
  52      0.20779371846186
  53       0.5071415885996
  54    -2.5643927022949e-13
  55     -0.68390411889367
 Sym= A
 Ene=              15
 Spin= Alpha
 Occup=    0.00000
   1      0.14331235404184
   2      0.20029899010591
   3      -1.4430716916225
   4      -2.2422768151145
   5     -0.29476616456337
   6    -2.1126643281252e-13
   7     -0.99523864115423
   8      0.68818180564546
   9    5.2829712451344e-13
  10       2.2321216506139
  11     0.098824676561331
  12    1.1869496397725e-13
  13      0.49773331762016
  14      0.26399560166505
  15      0.14891011522919
  16    3.1317762866166e-13
  17    -0.070080104658542
  18    1.0533122437212e-13
  19     -0.50009295965903
  20     -0.25422332814017
  21    -1.4709961102033e-13
  22    -0.083548052415507
  23    -9.8869633375267e-13
  24      0.13548703835173
  25       0.2454010700407
  26       2.1944794073028
  27       1.7822699246721
  28    -0.082201772128338
  29    3.2853725054147e-14
  30     0.050522003236566
  31       0.4903151574203
  32    -2.9923754490777e-13
  33       1.0338401732484
  34      0.24532184044814
  35    -3.7692654769309e-13
  36      0.45259323182587
  37     -0.39837516783707
  38     -0.26669349460182
  39    6.0352111976359e-14
  40     0.036300045392996
  41    8.1366284610554e-14
  42      0.32230988350881
  43     0.023697843548565
  44    -4.6895153280938e-13
  45      0.11089744014572
  46    5.6188620526659e-13
  47     -0.15309036981294
  48     -0.15746439035886
  49    -0.080477205745918
  50     0.032765779262482
  51    -2.1844350552561e-13
  52     0.035667550290788
  53     0.047930107979536
  54    1.4409702637751e-13
  55     0.085404746004162
 Sym= A
 Ene=              16
 Spin= Alpha
 Occup=    0.00000
   1    -0.00067956054647013
   2    -0.0005469453022034
   3     0.002934469336174
   4    -0.052863621160863
   5    0.0033782103125721
   6     -0.23427532231577
   7    -0.00074910562143597
   8    0.0019057767982042
   9     -0.29327594262319
  10    -0.003730002928974
  11    0.0026397437863247
  12       2.0174602526383
  13     0.047599709422805
  14    0.00054947463771973
  15    0.00054801392730578
  16     0.013631117859267
  17    0.00079252639783531
  18    0.0032165512671156
  19    -0.001838175697548
  20    0.00031007471227967
  21    -0.039795203570211
  22    0.00049246918000532
  23    -0.0077027500523831
  24    0.0043367081469429
  25     0.010383693745924
  26      0.01099596665296
  27      0.15482312327804
  28    -0.0049290784898454
  29      0.10636539349343
  30    -0.0011112170318049
  31     0.016736292386788
  32     0.051644171321885
  33    0.0037307135950654
  34    0.0073787946306558
  35       -1.549349664599
  36    -0.028173595634003
  37    0.00050126082550892
  38    -0.00052770121934614
  39    -0.00037069135998917
  40    -0.00020167007340759
  41     0.003177509558632
  42    0.0060873866140103
  43    -0.00078985347989685
  44    -0.063610882851904
  45    0.0009164098841057
  46    -0.017957599181099
  47    0.00092502242281377
  48    -0.041311125169147
  49    -0.074142247555014
  50    -0.00094045459501373
  51    0.0012252363214184
  52    -0.00068689352986273
  53     0.030563212217414
  54    0.0017106149985994
  55    -0.013179934291508
 Sym= A
 Ene=              17
 Spin= Alpha
 Occup=    0.00000