[Molden Format]
made by pyscf v[2.13.1]
[Atoms] (AU)
O   1   8     0.21099695469856     0.00000000000000     2.15462460678861
N   2   7    -0.44776862100326     0.00000000000000    -0.03589262653049
H   3   1     1.18163474748449     0.00000000000000    -1.17386889907833
[GTO]
1 0
 s    8 1.00
                 11720  0.00070964594651845
                  1759  0.0054672722921914
                 400.8   0.027823118610189
                 113.7    0.10474773971146
                 37.03    0.28292084635691
                 13.27    0.44849523869833
                 5.025    0.27081688521277
                 1.013    0.01545029160744
 s    8 1.00
                 11720  -0.00031444341168873
                  1759  -0.0024821376810179
                 400.8  -0.012316355381583
                 113.7  -0.050538917343672
                 37.03   -0.13938490331632
                 13.27   -0.32507749481778
                 5.025   -0.22984830758785
                 1.013     1.0953793467883
 s    1 1.00
                0.3023                   1
 s    1 1.00
               0.07896                   1
 p    3 1.00
                  17.7   0.062679166281506
                 3.854    0.33353656587936
                 1.046    0.74123964163973
 p    1 1.00
                0.2753                   1
 p    1 1.00
               0.06856                   1
 d    1 1.00
                 1.185                   1
 d    1 1.00
                 0.332                   1

2 0
 s    8 1.00
                  9046  0.00069961741342552
                  1357  0.0053860546299287
                 309.3   0.027391021189057
                 87.73    0.10315059198201
                 28.56    0.27857066331743
                 10.21    0.44829484945412
                 3.838    0.27808592839527
                0.7466   0.015431561233271
 s    8 1.00
                  9046  -0.00030499009595337
                  1357  -0.0024080263785077
                 309.3   -0.01194444872518
                 87.73  -0.048925992909017
                 28.56   -0.13447272472496
                 10.21   -0.31511257770011
                 3.838   -0.24285783254964
                0.7466     1.0943822068542
 s    1 1.00
                0.2248                   1
 s    1 1.00
               0.06124                   1
 p    3 1.00
                 13.55   0.058905676772132
                 2.917    0.32046110671427
                0.7973    0.75304206179207
 p    1 1.00
                0.2185                   1
 p    1 1.00
               0.05611                   1
 d    1 1.00
                 0.817                   1
 d    1 1.00
                  0.23                   1

3 0
 s    3 1.00
                 13.01   0.033498726389998
                 1.962    0.23480080117413
                0.4446     0.8136829578829
 s    1 1.00
                 0.122                   1
 s    1 1.00
               0.02974                   1
 p    1 1.00
                 0.727                   1
 p    1 1.00
                 0.141                   1

[5d]
[7f]
[9g]

[MO]
 Sym= A
 Ene=               0
 Spin= Alpha
 Occup=    1.00000
   1    -0.0028946092679743
   2    -0.017758874221948
   3    -0.016952766480448
   4    -0.012245584276386
   5      0.52865463248406
   6    -4.8217993621978e-15
   7     -0.09210355154385
   8       0.3688705908433
   9    -3.0080683018538e-15
  10    -0.071213074342388
  11      0.12563492468134
  12    3.2143442417034e-16
  13    -0.022652789158216
  14    -0.00048920751952167
  15    -0.0028054102603781
  16    2.9319432594316e-16
  17    -0.000860078001669
  18    4.2252372860706e-17
  19     0.001247704718366
  20    -0.0018392983188475
  21    2.3500382636332e-16
  22    -0.0015789782672556
  23    9.7808424522899e-17
  24    -0.0005764185528439
  25      0.12275918702432
  26      0.26675914014114
  27      0.16361512538536
  28     -0.35909100235123
  29    -4.1155041865598e-15
  30    -0.044178399480972
  31     -0.22089458185153
  32    -1.9658450878531e-15
  33    -0.031028740751389
  34    -0.074772996820382
  35    -7.0934662616731e-16
  36    -0.0037471328538457
  37    -0.010882111922266
  38     0.023341426073087
  39    -2.9266248686652e-16
  40    -0.010388046625466
  41    -1.8916539336352e-16
  42     8.69558518985e-05
  43    0.0024821794631776
  44    -9.1635394247211e-18
  45    0.00061075890132023
  46    -1.6246157219528e-16
  47     -0.27755229861004
  48     -0.18787002843841
  49      -0.0378688288874
  50     0.003068878885764
  51    -1.2190653661711e-17
  52    -0.0092409030373934
  53    -0.018445017525685
  54    -2.1140895008796e-16
  55     0.019237282718528
 Sym= A
 Ene=               1
 Spin= Alpha
 Occup=    1.00000
   1    4.821543039131e-17
   2    1.0114966983636e-14
   3    1.659657942162e-14
   4    -4.4857776378475e-15
   5    -3.3597034387283e-14
   6      0.48293643377382
   7    9.4764314201037e-14
   8    -1.9763929546227e-14
   9      0.29325120273613
  10    5.3635149920034e-14
  11    -1.7707333724033e-15
  12     0.032802356604109
  13    6.8040907578396e-15
  14    -3.7124837933547e-15
  15    9.9648481671488e-16
  16    -0.023547370697403
  17    3.6712784770754e-16
  18    -0.0062388229740347
  19    -1.8035161091426e-15
  20    1.3560771740875e-15
  21    -0.026807233320924
  22    2.9763112825109e-16
  23    -0.0057340089517254
  24    -2.0764614605094e-15
  25    4.0668297700205e-14
  26    6.5565552031426e-14
  27    2.7781532159965e-14
  28    -6.4343186102689e-14
  29      0.40143086921762
  30    -7.9478387128864e-14
  31    -3.4000894492662e-14
  32      0.20915817645098
  33    -2.0839894712272e-14
  34    -5.5914373727059e-16
  35     0.016157129053395
  36    2.0720076121095e-15
  37    -1.3952033900186e-15
  38    -7.7158198876132e-15
  39      0.03072491661808
  40    -2.9478887279476e-15
  41     0.018563257983275
  42    4.0299396701826e-15
  43    2.5087925040644e-15
  44    -0.0018467998350396
  45    -2.7643883868122e-15
  46     0.011167004887345
  47    2.2790867328132e-14
  48    7.3566571328625e-15
  49    -3.4545863423179e-15
  50    -3.6881669519894e-15
  51     0.011418005103861
  52    -7.1203562853482e-16
  53    -4.013700455715e-15
  54    0.0029799986058222
  55    1.2837676743248e-16
 Sym= A
 Ene=               2
 Spin= Alpha
 Occup=    1.00000
   1    0.0046340255247006
   2    -0.078324191667071
   3     -0.15371212181656
   4     -0.11769473056972
   5      -0.1817037663848
   6    6.925205818035e-14
   7     -0.36266267600629
   8    -0.097164445700321
   9    4.2283260911162e-14
  10     -0.16620928185019
  11    0.0047264415066121
  12    4.9917674457631e-15
  13    -4.3852895541652e-05
  14    0.0095947729019087
  15     0.012612344062241
  16    -3.3353476086762e-15
  17    0.0034923774191695
  18    -8.6598706290021e-16
  19    -0.0066961302375598
  20     0.010188374103721
  21    -3.9912324680239e-15
  22    -0.00016881899480467
  23    -9.3543291743308e-16
  24     0.010759788759202
  25    -0.084376678477237
  26    -0.077672796256117
  27     0.054883953590996
  28     -0.10132506695687
  29    5.7885960454371e-14
  30      0.42922460279438
  31    0.0045956254560898
  32    2.996683624518e-14
  33       0.1257502456081
  34    0.0055529033153712
  35    2.6729033175767e-15
  36     0.020716802186365
  37     0.023693264197934
  38     0.021578776222569
  39    4.4458676927452e-15
  40    -0.006927799590894
  41    2.6518068397446e-15
  42    -0.015075452224437
  43    -0.0091138265150351
  44    -4.9796378324312e-16
  45     0.017510953716995
  46    1.6940766370486e-15
  47     -0.30146915468744
  48     -0.10510037425035
  49    -0.0076760635999666
  50     0.023952552519654
  51    1.6305957636298e-15
  52    -0.010348897305425
  53     0.009678293889856
  54    9.2286428113183e-17
  55    -0.011626784579635
 Sym= A
 Ene=               3
 Spin= Alpha
 Occup=    1.00000
   1    -0.0031278107228379
   2    -0.036990322020554
   3    -0.031996876764041
   4     0.017613827105231
   5     -0.36338982022302
   6    -8.6797253942458e-14
   7      0.19208215550462
   8     -0.21235617561632
   9    -5.3508257671845e-14
  10       0.1108365203414
  11    -0.021434685460824
  12    -4.6999317429638e-15
  13    0.0078637849592263
  14    -0.0097269887730652
  15     0.016376014865107
  16    4.1735997860294e-15
  17    0.0048664115477403
  18    1.0643361310099e-15
  19    -0.0065357011912791
  20     0.017493867681859
  21    5.192214108304e-15
  22    0.0022890316075495
  23    1.2665157935619e-15
  24    0.0022488242484914
  25      0.21099897213739
  26      0.29284024291857
  27     0.043778461275622
  28     -0.39149730734265
  29    -7.2357050825388e-14
  30    -0.093058304379566
  31     -0.18266422847971
  32    -3.7202920559926e-14
  33    -0.059279299533775
  34    -0.016471997188637
  35    -4.3226132035825e-15
  36    -0.0070282727969628
  37     0.010427042816358
  38    -0.026868808750815
  39    -5.5773415311763e-15
  40    -0.019937794149633
  41    -3.3389482860158e-15
  42    0.0012543105750958
  43    -0.003249696321766
  44     8.42450043786e-16
  45     -0.00652415008485
  46    -1.9435236431708e-15
  47    -0.071539126139856
  48    -0.030898618243678
  49    -0.0039779618556625
  50    -0.0039892547609316
  51    -2.0675076703146e-15
  52    -0.0082713366393033
  53    -0.0041888372742889
  54    -2.9431670879736e-16
  55    -0.010607091047064
 Sym= A
 Ene=               4
 Spin= Alpha
 Occup=    1.00000
   1    -0.00099389837628432
   2      0.36084693139255
   3      0.52958876340126
   4      0.15095527899723
   5    0.0041475487281978
   6    -1.1818080592589e-14
   7      0.25361716260611
   8    -0.015946867244203
   9    -6.8665806221111e-15
  10     0.084609116205009
  11    -0.0043068519418579
  12    -8.9140292088897e-16
  13    -0.0095039561408594
  14    -0.012491172874577
  15    -0.00023844415204454
  16    5.6534882061634e-16
  17    -0.0019291111280807
  18    1.5812204268775e-16
  19    -0.0053568474608374
  20    0.0060430739175668
  21    5.8406114565844e-16
  22    -0.0035417068898246
  23    1.3093375327802e-16
  24     0.000762281076117
  25     -0.26928514691461
  26     -0.30347005874873
  27    -0.081006124884684
  28     -0.12747216577938
  29    -9.8010493740281e-15
  30     0.068449083553551
  31    -0.038046938431933
  32    -5.4303495818582e-15
  33    -0.060445244568221
  34    -0.010074244434102
  35    -3.3959153346411e-16
  36    -0.023251427719704
  37     0.010081184284505
  38    0.0051696134245095
  39    -7.8350468966384e-16
  40    -0.0052998435047529
  41    -4.6972958078302e-16
  42    -0.021946100562714
  43    -0.023556947100886
  44    -3.4244667130086e-17
  45     0.011375460427735
  46    -3.7035460106649e-16
  47     -0.19906479539314
  48    -0.028149827888967
  49    0.0023645544566738
  50     0.018903879573721
  51    -2.5773806379379e-16
  52    -0.012862847112465
  53    0.00024888997474746
  54    -8.1194653225024e-17
  55    -0.0018372304450996
 Sym= A
 Ene=               5
 Spin= Alpha
 Occup=    1.00000
   1    -0.0032907713613786
   2      0.31573505241914
   3      0.29154077605946
   4    -0.022328101531583
   5    -0.035082190332666
   6    6.0938994449373e-15
   7     -0.23244805589866
   8    -0.0070044400862794
   9    3.183586389486e-15
  10     -0.10514515496882
  11     0.004096362907745
  12    5.9329812025083e-16
  13    0.0092676431792963
  14     0.018057611373608
  15    0.0078855351671498
  16    -2.5635185137832e-16
  17    -0.0017579020499826
  18    -9.4006504274162e-17
  19     0.011644256665884
  20    0.0012329051125294
  21    -3.7150983526885e-16
  22    0.00049573420061736
  23    7.2861652686784e-17
  24     -0.02606286007521
  25       0.3081357306321
  26      0.15322679681483
  27     0.026789351225101
  28      0.11226950022942
  29    5.085243354211e-15
  30      0.18221764208205
  31     0.011651817143761
  32    2.730996890959e-15
  33     0.012870845038774
  34    0.0071300892512281
  35    6.9465345961899e-17
  36    0.00076398354098824
  37     0.020845083942393
  38     0.018028757978123
  39    3.8020949436053e-16
  40    0.0027387036669544
  41    2.3603673281375e-16
  42    -0.0058759709592838
  43    0.0027598177424203
  44    3.2723566038981e-16
  45    -0.0083492064826786
  46    1.1394495902428e-16
  47     0.092146572880133
  48     -0.02717177642113
  49    -0.0029880875765669
  50    -0.013266080240179
  51    1.8337518358244e-16
  52     0.013500357836902
  53     0.012736178121205
  54    1.6218929713634e-16
  55    -0.0072738809067374
 Sym= A
 Ene=               6
 Spin= Alpha
 Occup=    1.00000
   1    0.00070276151370848
   2    0.0061496494512373
   3    0.0060615117372097
   4    0.00089706537300962
   5    0.00096074645479405
   6    5.9628127809655e-16
   7    -0.0050288991481762
   8     0.001208478601457
   9    -2.3644587355825e-15
  10    -0.0012911121005433
  11    -3.2273150952634e-05
  12    -1.957316873753e-15
  13    -0.00014864954083707
  14    -0.00032858189644131
  15    -0.00033794452573533
  16    -8.0593951873382e-16
  17    -0.00010690956872828
  18    -2.6262437034021e-16
  19    -0.00090478381218083
  20    -0.0010343398764767
  21    2.9189242823383e-15
  22    -0.00023680861891664
  23    7.0422973028743e-16
  24       1.0053186404696
  25     0.021852694382223
  26    -0.014704984037283
  27    -0.0064827718758005
  28    0.0072937550167843
  29    5.128890192252e-16
  30    0.0033644933767221
  31    -0.0041185204844999
  32    3.8681835694933e-15
  33    0.0005040234085402
  34    -0.0015808402899918
  35    1.5794021528415e-15
  36    0.00062403064433343
  37    0.0011828626493314
  38    0.00028519424996449
  39    1.9475105816649e-16
  40    0.00053024030938665
  41    6.5021078075635e-17
  42    -0.0015197447942567
  43    -5.6283705688665e-05
  44    2.4218056205954e-15
  45    -0.00090254205006997
  46    1.1365313384007e-15
  47    0.0052647455250418
  48     0.013702330046529
  49    0.0014575368933603
  50    0.00052191833539502
  51    -1.0719451937797e-16
  52    -8.5052423956582e-05
  53    -0.0046708400658427
  54    -4.0285070407014e-16
  55    0.0032415731525463
 Sym= A
 Ene=               7
 Spin= Alpha
 Occup=    1.00000
   1       1.0060755796012
   2      0.01103727014718
   3    -0.041049890967196
   4    -0.011088871499723
   5    -0.00038721081988614
   6    -1.3614871296164e-16
   7    -0.0017785664221682
   8    0.0045955295801467
   9    -1.9728396646165e-16
  10     0.018157751156661
  11    0.00076519650258224
  12    -9.3845152118089e-17
  13    0.0016993974035288
  14    0.00031093140688305
  15    0.00015242772372844
  16    2.5447750872428e-17
  17    8.2693669793711e-06
  18    -1.9501550863069e-17
  19    -0.0039568527446492
  20    -0.0018853472627033
  21    8.6274069476668e-17
  22    -0.00014097307992248
  23    1.802229535799e-18
  24    -0.0010759071143115
  25    -0.0018605882641408
  26     0.027006674997977
  27    0.0075541279400014
  28    0.00039267495963831
  29    -1.2857602397745e-16
  30    6.2123576934613e-05
  31    0.0061358588601127
  32    1.6849009147109e-17
  33     0.020935917447309
  34    9.908887485213e-05
  35    -7.176047552243e-18
  36    0.0023382786358749
  37    -0.0003272314527308
  38    -0.00046820722424157
  39    -1.7781984983518e-17
  40    0.00013130457978162
  41    -4.4419337837172e-18
  42    0.0053644624440923
  43    0.0041049728623534
  44    7.0768478836967e-17
  45    0.00073306869398949
  46    2.1000048373132e-17
  47    -0.00042105967550344
  48     0.003525779020636
  49    -0.00041177655548528
  50    0.00030181829179598
  51    -4.7953508307235e-18
  52    -0.00069605710794834
  53    -0.0015075353641094
  54    1.3270693062376e-17
  55    8.0509897991191e-05
 Sym= A
 Ene=               8
 Spin= Alpha
 Occup=    0.00000
   1    -0.0083245948464538
   2    -0.014392165557944
   3      0.15079843626431
   4     -0.26139249443254
   5    -0.048160661445347
   6    2.4164384997301e-14
   7     0.047904202520939
   8    -0.070450310185114
   9    1.3109777289079e-14
  10    -0.040984066667817
  11      0.01522497812774
  12    -3.4352862564284e-15
  13     -0.24309558464388
  14    -0.0065080681589467
  15    0.0081829113214845
  16    -4.139357862122e-15
  17    0.0016622657503768
  18    -1.5251007972395e-15
  19    0.0094993189880993
  20     0.011956915490137
  21    8.1892318735453e-16
  22    0.0043542908176084
  23    1.144017374354e-15
  24    -0.012781537216478
  25    0.0065766057695238
  26      0.23116375095085
  27       1.0645023678643
  28     -0.21781676680976
  29    7.849908457884e-14
  30      0.03685446420522
  31      -0.1388198309355
  32    9.3902029339121e-14
  33     -0.17279229467614
  34       1.3840085902313
  35    -3.915915549808e-13
  36     0.047488706871629
  37    0.0053816755369097
  38    -0.014075066308015
  39    4.3270218076142e-15
  40    -0.016576909075123
  41    5.129206357416e-15
  42    -0.056038329615253
  43    -0.045961617167196
  44    1.085892166457e-14
  45     0.052374894469793
  46    -1.0912022298737e-14
  47    0.0091190960166376
  48     -0.82459898978225
  49     -0.80257736657149
  50     0.024769411944207
  51    -2.9528648524413e-15
  52    -0.0075001418513523
  53      0.17096012071804
  54    1.6344208559046e-14
  55     -0.19785689067269
 Sym= A
 Ene=               9
 Spin= Alpha
 Occup=    0.00000
   1    5.6777384514397e-17
   2    -5.3437134786239e-15
   3    -3.800760909211e-14
   4    -1.4129515926606e-13
   5    -2.4215517823968e-15
   6     -0.44382898673278
   7    2.3928610029598e-14
   8    -1.337808191988e-15
   9     -0.32304669640803
  10    4.5431933609132e-14
  11    6.061883304174e-14
  12     -0.27149575298371
  13    2.3908603742166e-14
  14    2.2609621896191e-15
  15    -1.0543172966013e-16
  16    -0.0033299083385238
  17    -7.6903173822054e-16
  18    -0.0013753916598987
  19    1.2178478826788e-15
  20    -1.6954601406482e-15
  21    0.00047543810221593
  22    2.2000038492904e-15
  23    -0.0089635101698862
  24    1.0618138215868e-14
  25    4.1810402506663e-14
  26    5.8766119511002e-14
  27    1.1742629680326e-13
  28    2.8548092377353e-14
  29      0.64650852742558
  30    -1.7451221113186e-14
  31    5.970863169835e-14
  32      0.34983242301615
  33    4.891409236529e-14
  34    -1.292084367682e-13
  35       0.1047994063683
  36    5.9842572233211e-14
  37    -6.553418892715e-15
  38    1.6264540646025e-15
  39    -0.00078354482690037
  40    4.9795638314391e-15
  41    -0.0049261449242704
  42    3.1296160051061e-15
  43    3.6360824121809e-15
  44    -0.0033629592831741
  45    -4.8064457859854e-15
  46    -0.019904840961775
  47    -1.4291524384788e-14
  48    -2.2755930865068e-14
  49    -1.9200366436285e-14
  50    -2.0323232187443e-15
  51     0.016307294846852
  52    5.9642521938841e-15
  53    2.0959157527498e-14
  54    -0.025010368244541
  55    3.0194276105114e-14
 Sym= A
 Ene=              10
 Spin= Alpha
 Occup=    0.00000
   1    0.0038005948701279
   2     -0.01118501053063
   3    0.0013072318911356
   4      0.50163873646066
   5     0.054003549479665
   6    -2.8578179225399e-14
   7     -0.12144131785365
   8     0.090999587995121
   9    -3.972523581196e-14
  10     -0.19064772112607
  11      0.12464862398084
  12    -3.0545276982046e-14
  13     0.021893503660533
  14    -0.017117122433281
  15    -0.0013155410762794
  16    -4.6678879364465e-15
  17     0.004962102076294
  18    -1.1148500941282e-15
  19    -0.041836610583347
  20    -0.013555918965944
  21    4.4256879547243e-15
  22     0.017237905191942
  23    -7.1479446658536e-15
  24    -0.044073836073708
  25     -0.29133901669581
  26     -0.70456641215357
  27     -0.33066418843852
  28     -0.32619749216865
  29    7.4898679178446e-14
  30      0.41072779398111
  31     -0.22505277815018
  32    -1.171885755185e-14
  33     -0.10736724982292
  34     -0.26205223539796
  35    -8.7137643755184e-15
  36    -0.098687966687608
  37      0.04207402751072
  38    -0.061106337686454
  39    1.8113776346533e-15
  40    0.0066438558007709
  41    -7.300732478886e-15
  42      0.05350692189398
  43    -0.070381845950623
  44    2.5597382816424e-14
  45     0.011907374861472
  46    -2.1355110819519e-14
  47      0.34908117592332
  48      0.76408867247311
  49      0.29889839481125
  50     0.017521868230429
  51    -3.0834686518998e-15
  52     -0.04993904415167
  53     -0.22737503482337
  54    6.0526593710745e-14
  55    -0.074000832881893
 Sym= A
 Ene=              11
 Spin= Alpha
 Occup=    0.00000
   1    -0.0019796319092731
   2    -0.066525073004012
   3     -0.39497740026576
   4      0.87298882837236
   5     -0.11369793213346
   6    6.7285099034408e-15
   7      0.23737787090137
   8    -0.065935702885202
   9    -6.2833954757427e-14
  10      0.23630770718856
  11       1.1188712248904
  12    -2.4316180128771e-13
  13      -0.5333459944327
  14    0.0091018586113999
  15    0.00060003615743384
  16    -6.3825756927021e-15
  17    0.0060879468367109
  18    -7.113149106874e-15
  19     0.015103157962563
  20     0.010921406838105
  21    1.0924140012934e-14
  22    0.0077543838573546
  23    1.7615258056352e-14
  24      0.10934445968128
  25      0.32155805645486
  26     0.024658085380339
  27      -1.8439431676187
  28     -0.26487843336609
  29    -1.8637138939659e-13
  30     0.062773254921633
  31      0.28432152535918
  32    5.9041565494546e-14
  33      0.50983600467015
  34      -1.6904268138058
  35    5.6823462442139e-13
  36    -0.0042844522779828
  37     -0.05932074089073
  38    -0.062004203960767
  39    -1.7053518388952e-14
  40     0.095662125360275
  41    2.8338899249363e-15
  42     0.014105128033307
  43     0.012165446219942
  44    2.6202056555119e-15
  45      0.12217658715026
  46    7.3516077398698e-15
  47      0.17071192687504
  48      0.59535583281048
  49      0.73606743503542
  50       0.0259490830981
  51    2.7949592833729e-15
  52      0.01296200444788
  53      0.22496208971076
  54    3.2687553244445e-14
  55      0.22263958556559
 Sym= A
 Ene=              12
 Spin= Alpha
 Occup=    0.00000
   1    -0.018820466164093
   2     0.076319011433647
   3      0.86754337332129
   4     -0.60203833639346
   5     0.068310571917602
   6    -3.236970452149e-15
   7      0.10270798992127
   8     -0.02586324581792
   9    -9.5153334302831e-14
  10     -0.02329765147364
  11      0.25279043406003
  12    -1.582445586908e-13
  13     -0.12538178614029
  14     0.011998495762023
  15     0.028724603237189
  16    1.5909137895337e-14
  17     -0.01279448972352
  18    5.0690401843967e-15
  19     0.046825288312875
  20     0.099493387193928
  21    3.5080579880633e-14
  22    -0.060314051663128
  23    2.8840568710755e-14
  24      -0.1818239238037
  25     -0.43562275465916
  26      0.19747631113399
  27     -0.34887068229158
  28     -0.14124194349383
  29    -6.6323019372587e-14
  30       0.2751550560108
  31    -0.001823993857336
  32    4.3699054457172e-14
  33     -0.34840361200877
  34     -0.28032540346224
  35    2.1288514542675e-13
  36     -0.21075652444328
  37    0.0053593607672485
  38    -0.043122318848156
  39    -2.02215973853e-15
  40     0.015270648506866
  41    -1.6874369004183e-15
  42     -0.21275941478992
  43     -0.17780991877231
  44    8.455401808947e-14
  45    -0.017055436940876
  46    4.9731087968534e-14
  47      0.34211585907493
  48     -0.03721987017808
  49     -0.17793473884222
  50    -0.025483083398751
  51    -1.1258515631066e-14
  52    -0.0065425916683035
  53     -0.38429601421902
  54    1.4669448938161e-13
  55     0.022727875501299
 Sym= A
 Ene=              13
 Spin= Alpha
 Occup=    0.00000
   1     0.002169941854737
   2     0.047349250319608
   3     -0.24178999424944
   4       1.4105201509331
   5     -0.22723562815527
   6    -3.2725235508799e-14
   7     -0.26761674457525
   8    -0.092709212658441
   9    2.8389547951862e-14
  10     -0.17677729442747
  11       0.2835352832015
  12    -1.7705378446907e-13
  13     -0.64645838958711
  14      0.10130193180287
  15      0.01824112050904
  16    -6.4376343037361e-15
  17     0.031390824341865
  18    2.1178543199883e-14
  19    0.0032340957532427
  20    -0.066895006834376
  21    7.8263603466566e-15
  22     0.030582870614982
  23    -7.0403465284575e-14
  24     -0.44723156000133
  25      -1.1707420848485
  26      0.58837230448132
  27      -1.1617131294466
  28     -0.14983836922364
  29    -8.2492444329063e-14
  30     -0.43742160948192
  31    -0.063714656159349
  32    1.270431919582e-14
  33      0.15477968403507
  34     -0.33484102268637
  35    1.4730289955865e-13
  36     -0.10560758800374
  37     -0.15037768835866
  38      0.16896317490689
  39    -1.1572727823619e-14
  40    -0.051585573689993
  41    -6.6780825746123e-15
  42    -0.078385110486162
  43    -0.0066792149005492
  44    2.8903554909382e-14
  45    -0.0034069001125833
  46    5.5124047536222e-14
  47      0.21719638408427
  48     -0.14453745124776
  49    -0.070378011288416
  50    -0.098249351959782
  51    -7.3006837958246e-15
  52     0.065503314345945
  53     -0.17395158799558
  54    1.2651123821276e-13
  55      0.13272574792514
 Sym= A
 Ene=              14
 Spin= Alpha
 Occup=    0.00000
   1     -0.19089275260513
   2     -0.32301569009639
   3       1.9560705545693
   4      0.79427007782438
   5     0.044763813850664
   6    6.5911468094526e-15
   7     -0.02649037837654
   8     -0.51075527926845
   9    1.2513343347348e-14
  10      -1.1558473544156
  11     -0.53597401336502
  12    7.3046269430004e-14
  13    -0.009834549505861
  14     0.076747716974657
  15    -0.0078200368660891
  16    -2.1967176938629e-14
  17    -0.011724413315878
  18    4.7763188450218e-14
  19      0.28946263482929
  20      0.16117594630962
  21    -2.1075969200357e-14
  22     0.011391432060541
  23    4.9171108268677e-15
  24     -0.19135944206944
  25     -0.41709641482178
  26     -0.51515073125395
  27      0.90210764896468
  28      -1.1304772248276
  29    -1.273330561234e-13
  30      0.11019501668524
  31       1.0977136792871
  32    3.4039193393311e-13
  33      -1.7939703283332
  34      0.43026596711555
  35    -1.0157696705134e-13
  36     -0.21979511858243
  37    -0.044130457154079
  38       0.1907196754592
  39    2.0377581812274e-14
  40      -0.2895869259418
  41    1.8103358480075e-13
  42     -0.40020174411734
  43     -0.17743059584938
  44    -1.2111327424442e-13
  45      0.12715750668224
  46    -1.4320723121082e-13
  47      0.25329431753673
  48      -2.4223427641595
  49     -0.33570785900954
  50     -0.58808215633613
  51    -1.436452486696e-13
  52      0.48154333947448
  53      0.90011164092887
  54    -2.6732398803192e-13
  55     -0.64756792955533
 Sym= A
 Ene=              15
 Spin= Alpha
 Occup=    0.00000
   1      0.33479874278508
   2      0.75217026786001
   3      -1.8228083910636
   4       2.6764671994754
   5      0.37510661397058
   6    -2.010623773828e-12
   7      0.88616109374136
   8      -0.6867763364661
   9    2.8129730193999e-12
  10      -1.0754556680905
  11     -0.06316198164922
  12    1.4476551348483e-13
  13     -0.41932604306255
  14    -0.094962658904049
  15     -0.16381168357339
  16    -2.3626694738229e-13
  17      0.16584420506537
  18    -6.3307728104454e-13
  19      0.32891723181283
  20      0.25432941320904
  21    -4.2549813496474e-13
  22     0.048434207309632
  23    -1.5651829022047e-14
  24     -0.29943118200436
  25      -0.5401394119925
  26      0.16324908153909
  27      -1.6929515636072
  28     0.017229721122506
  29    -1.7978256965493e-13
  30    -0.0071630762698875
  31      0.34532950028752
  32    -1.4313502167684e-12
  33      0.37883663297902
  34     -0.10909458019927
  35    -3.0563080956298e-13
  36     -0.40472964970257
  37      0.19165151033376
  38      0.11808978620231
  39    8.5594772095288e-15
  40     0.094523514885025
  41    -2.8393833854137e-13
  42     0.027365485014512
  43      0.37759604872672
  44    -3.421786787535e-13
  45    0.00090663467425555
  46    -8.8866617607306e-14
  47    0.0092455264476599
  48     -0.20327896183547
  49      0.13317712927706
  50    -0.015707976390434
  51    2.0500688581185e-13
  52    -0.053964255965563
  53     -0.03891014750599
  54    8.9083396291967e-13
  55     -0.30298516151821
 Sym= A
 Ene=              16
 Spin= Alpha
 Occup=    0.00000
   1    0.00025042052629271
   2    0.00010847072142231
   3    -0.0041102209281119
   4    -0.027706033493388
   5    0.00063968156750251
   6      -0.2250774281591
   7    0.0013175983890601
   8    -0.00020583096162705
   9       -0.286265736433
  10    0.00023467063852271
  11    0.0044559774214629
  12       2.0234891060643
  13      0.01305073752344
  14    -0.00037596918476551
  15    -0.00024820134476758
  16     0.013416195487532
  17    8.0473717597279e-05
  18    0.0031233953957052
  19    0.00012799874042891
  20    -0.00013728194527975
  21    -0.039832457215639
  22    4.9318392718918e-05
  23    -0.0076148767747856
  24    0.0014971602693165
  25    0.0034643524701104
  26    0.0036492840025899
  27      0.09283126179322
  28    -0.0004305379878986
  29      0.10708679763873
  30    0.00050321483446615
  31    0.0070261058927301
  32     0.050178749365599
  33    0.0017810134031752
  34    0.0088172648338249
  35      -1.5857182010728
  36    -0.0049546592974518
  37    0.00037370041748679
  38    0.00017456060516171
  39    0.00052068306438172
  40    9.8480277557688e-05
  41    0.0031612065643249
  42     0.001800795247429
  43    -0.00012549364851684
  44    -0.062259354676915
  45    0.00069518864009457
  46    -0.019230130700239
  47    -0.0016790639090181
  48     -0.02387450454767
  49    -0.047441899626649
  50    0.00017885301675923
  51    0.00054594432576829
  52    0.00021305568017604
  53     0.014738813497137
  54    0.00079287693652974
  55    -0.0054540076172263
 Sym= A
 Ene=              17
 Spin= Alpha