[Molden Format]
made by pyscf v[2.13.1]
[Atoms] (AU)
O   1   8     0.21099695469856     0.00000000000000     2.15462460678861
N   2   7    -0.44776862100326     0.00000000000000    -0.03589262653049
H   3   1     1.18163474748449     0.00000000000000    -1.17386889907833
[GTO]
1 0
 s    8 1.00
                 11720  0.00070964594651845
                  1759  0.0054672722921914
                 400.8   0.027823118610189
                 113.7    0.10474773971146
                 37.03    0.28292084635691
                 13.27    0.44849523869833
                 5.025    0.27081688521277
                 1.013    0.01545029160744
 s    8 1.00
                 11720  -0.00031444341168873
                  1759  -0.0024821376810179
                 400.8  -0.012316355381583
                 113.7  -0.050538917343672
                 37.03   -0.13938490331632
                 13.27   -0.32507749481778
                 5.025   -0.22984830758785
                 1.013     1.0953793467883
 s    1 1.00
                0.3023                   1
 s    1 1.00
               0.07896                   1
 p    3 1.00
                  17.7   0.062679166281506
                 3.854    0.33353656587936
                 1.046    0.74123964163973
 p    1 1.00
                0.2753                   1
 p    1 1.00
               0.06856                   1
 d    1 1.00
                 1.185                   1
 d    1 1.00
                 0.332                   1

2 0
 s    8 1.00
                  9046  0.00069961741342552
                  1357  0.0053860546299287
                 309.3   0.027391021189057
                 87.73    0.10315059198201
                 28.56    0.27857066331743
                 10.21    0.44829484945412
                 3.838    0.27808592839527
                0.7466   0.015431561233271
 s    8 1.00
                  9046  -0.00030499009595337
                  1357  -0.0024080263785077
                 309.3   -0.01194444872518
                 87.73  -0.048925992909017
                 28.56   -0.13447272472496
                 10.21   -0.31511257770011
                 3.838   -0.24285783254964
                0.7466     1.0943822068542
 s    1 1.00
                0.2248                   1
 s    1 1.00
               0.06124                   1
 p    3 1.00
                 13.55   0.058905676772132
                 2.917    0.32046110671427
                0.7973    0.75304206179207
 p    1 1.00
                0.2185                   1
 p    1 1.00
               0.05611                   1
 d    1 1.00
                 0.817                   1
 d    1 1.00
                  0.23                   1

3 0
 s    3 1.00
                 13.01   0.033498726389998
                 1.962    0.23480080117413
                0.4446     0.8136829578829
 s    1 1.00
                 0.122                   1
 s    1 1.00
               0.02974                   1
 p    1 1.00
                 0.727                   1
 p    1 1.00
                 0.141                   1

[5d]
[7f]
[9g]

[MO]
 Sym= A
 Ene=               0
 Spin= Alpha
 Occup=    1.00000
   1    -0.0030029648318859
   2    -0.015222875150595
   3    -0.012700867629002
   4    -0.010064319886193
   5      0.52288266862261
   6    -6.1445384049299e-16
   7    -0.084223663337514
   8      0.36531340235375
   9    -4.6934560393283e-16
  10    -0.067350724558447
  11      0.12513080152922
  12    6.2755308928527e-16
  13    -0.022543843129557
  14    -0.00080955985152797
  15    -0.0025775798703631
  16    8.6530033361761e-17
  17    -0.00080686997826857
  18    -1.341423001937e-17
  19     0.001152449729121
  20    -0.0015394451672643
  21    9.480048309857e-18
  22    -0.0015547046283548
  23    5.3429566531594e-17
  24    -0.00060172470631874
  25      0.12613333213411
  26      0.27123518604569
  27      0.16351940162367
  28     -0.36647640773455
  29    -6.2457785158107e-16
  30    -0.048652329726397
  31      -0.2246422837921
  32    -1.376724604974e-16
  33    -0.033509814693652
  34    -0.075172531565861
  35    -5.9843777748385e-16
  36    -0.0041884950479968
  37    -0.010773270400825
  38     0.022701787814152
  39    -2.6571129038477e-17
  40    -0.010748299618256
  41    -2.7507027341798e-17
  42    8.2820982069315e-05
  43     0.002344000323499
  44    -1.3547555420253e-17
  45    0.00041050375180335
  46    -6.5249608584093e-17
  47      -0.2776833665669
  48     -0.18781803231674
  49    -0.037865913814649
  50    0.0029090130973663
  51    8.7190669169867e-17
  52    -0.0093840965328067
  53    -0.018580539506788
  54    -1.7805794443843e-16
  55     0.019097397529172
 Sym= A
 Ene=               1
 Spin= Alpha
 Occup=    1.00000
   1    2.4833216166843e-15
   2    1.400175403981e-13
   3    1.4004671360074e-13
   4    -7.4561142712481e-15
   5    8.7541949498537e-13
   6      0.48293643377382
   7    -2.1022577228876e-13
   8    5.1470640330603e-13
   9      0.29325120273613
  10    -1.2910129978704e-13
  11    4.6962936979521e-14
  12     0.032802356604109
  13    -6.385021910305e-15
  14    1.8675223512681e-14
  15    -4.0649696547349e-14
  16    -0.023547370697403
  17    -1.2474809572815e-14
  18    -0.0062388229740347
  19    2.0815507306108e-14
  20    -4.4246393961392e-14
  21    -0.026807233320924
  22    -3.7068859509363e-15
  23    -0.0057340089517254
  24    -2.4986148081527e-15
  25    -2.2349599917348e-13
  26    -4.0961927878834e-13
  27    -7.3589385614506e-14
  28    8.9928954380275e-13
  29      0.40143086921762
  30    -1.1957866910543e-13
  31    3.6614967673239e-13
  32      0.20915817645098
  33    4.4130945793527e-14
  34    3.3888565216443e-14
  35     0.016157129053395
  36    9.4666415207971e-15
  37    -3.6312431558256e-14
  38    4.1031244338599e-14
  39      0.03072491661808
  40    4.6429675808142e-14
  41     0.018563257983275
  42    1.4214056959059e-14
  43    2.1335858875247e-14
  44    -0.0018467998350396
  45    -4.3272692213071e-15
  46     0.011167004887345
  47    4.3036320012642e-13
  48    1.3618887231495e-13
  49    7.8726879220326e-15
  50    -1.767900784451e-14
  51     0.011418005103861
  52    2.9884383986416e-14
  53    1.5828656581592e-15
  54    0.0029799986058222
  55    2.9678169492563e-14
 Sym= A
 Ene=               2
 Spin= Alpha
 Occup=    1.00000
   1    -0.00065469964283757
   2    -0.065981144490994
   3    -0.070866553002506
   4    -0.011163870572469
   5      -0.4039219507765
   6    1.0449188006703e-12
   7     0.091273054573963
   8     -0.23691757350851
   9    6.339705460373e-13
  10      0.05985261353005
  11    -0.020576098318716
  12    7.2149550959924e-14
  13    0.0054825750175396
  14    -0.0085802975668919
  15      0.01880786689462
  16    -5.0987357465973e-14
  17    0.0058013936394088
  18    -1.3535254687228e-14
  19    -0.010418375094645
  20     0.020297241096887
  21    -5.7742220135933e-14
  22    0.0016491711210394
  23    -1.2258594576142e-14
  24    0.0014503018413404
  25     0.095772331537167
  26      0.18622087953432
  27     0.047311775870915
  28     -0.41587496768247
  29    8.684999922036e-13
  30     0.063477629351501
  31     -0.16657358390402
  32    4.5282447665293e-13
  33    -0.013279904984273
  34    -0.013593440965598
  35    3.3817049286546e-14
  36    -0.0008372287319754
  37     0.017148193225625
  38    -0.018331988647012
  39    6.644000885043e-14
  40    -0.021501423397098
  41    4.0156708671245e-14
  42    -0.0059823905201312
  43    -0.0090617058908777
  44    -3.6864929483541e-15
  45    0.0027803006932986
  46    2.4240743329149e-14
  47     -0.20563087722224
  48    -0.064789537081996
  49    -0.0053924458670133
  50    0.0088000202413771
  51    2.4685125397875e-14
  52    -0.014179652676268
  53    -0.0013256473593469
  54    6.5311019904288e-15
  55    -0.013716716460695
 Sym= A
 Ene=               3
 Spin= Alpha
 Occup=    1.00000
   1    0.0045173470192874
   2     0.045763924309126
   3     0.041923145844145
   4    -0.051093903224343
   5    0.0033066046760222
   6    -2.4184888503814e-14
   7     -0.27205427738114
   8    0.0025233699471495
   9    -1.3996856698685e-14
  10      -0.1453967821746
  11     0.012162680551853
  12    -1.9051494876517e-15
  13    -0.0076596133685537
  14    0.0058709259888452
  15    0.0032217603305063
  16    1.235245361366e-15
  17    0.0004737777091178
  18    3.6398760150982e-16
  19    -0.0059775510744664
  20    0.0035837963830395
  21    1.0282124908361e-15
  22    -0.0023643102425731
  23    7.6836471212434e-17
  24    0.0045734819260208
  25     -0.27739147155233
  26     -0.29993883606823
  27    -0.00023698176964389
  28     0.011278846337861
  29    -1.9744597339626e-14
  30      0.40476796661749
  31     0.059660399075065
  32    -1.0790788842606e-14
  33      0.10665303466422
  34    0.0061413192904094
  35    7.258632259128e-17
  36     0.011948137724273
  37     0.017224744429774
  38     0.029292835164976
  39    -1.4941976408796e-15
  40    -0.00012006525591236
  41    -9.4301713948943e-16
  42    -0.020339745199572
  43    -0.014880042270111
  44    -3.8383053544417e-16
  45     0.022133354346704
  46    -5.4576062666964e-16
  47     -0.30713756597657
  48    -0.085826999774919
  49    -0.0042299484174652
  50     0.029669956036353
  51    -5.653945283266e-16
  52    -0.011304450176605
  53    0.0085158612764159
  54    -5.4176296639387e-16
  55    -0.0053004689538221
 Sym= A
 Ene=               4
 Spin= Alpha
 Occup=    1.00000
   1    0.00082844393646305
   2      0.15733621710661
   3      0.33002595786394
   4      0.17406652448162
   5     0.081629586995586
   6    -6.0095235908666e-16
   7       0.4527389556379
   8      0.02280060108259
   9    1.1075474130055e-16
  10      0.18244359241063
  11    -0.0083198429552139
  12    -2.4655425655304e-16
  13    -0.011736097657685
  14    -0.022368220046893
  15    -0.0086339098811127
  16    5.2434609805647e-18
  17    -0.0019136558647658
  18    1.5194123323759e-17
  19    -0.0074432278605639
  20    0.00049400875658044
  21    -2.7238254336848e-17
  22    -0.0029180701445118
  23    -4.6062813192718e-17
  24    -0.017907565041803
  25     -0.33011420448467
  26     -0.28267779935972
  27    -0.098048120414251
  28     -0.11811491290533
  29    -6.1481562393463e-16
  30     -0.19854266865026
  31    -0.037287641898522
  32    -6.3515383741705e-16
  33     -0.10155814860687
  34    -0.013056799701668
  35    -9.6696758929148e-17
  36    -0.026494915860452
  37    -0.011123860323098
  38    -0.013387406460258
  39    -7.9376433853492e-17
  40    -0.0030135040534966
  41    -3.3424510159204e-17
  42    -0.0085760766509368
  43    -0.016433934769725
  44    -2.0448778784846e-16
  45    0.0063657789347559
  46    -1.4126908604693e-16
  47    -0.086271002108589
  48     0.031699513890421
  49    0.0064264228419378
  50     0.012218646352611
  51    -1.1577452905589e-17
  52    -0.012817727640268
  53    -0.009490563793363
  54    6.9949461109956e-17
  55    0.0061871936999785
 Sym= A
 Ene=               5
 Spin= Alpha
 Occup=    1.00000
   1    -0.0036732434307292
   2      0.45415740661657
   3      0.52390751585276
   4     0.066703756817292
   5    -0.050547931362478
   6    6.5048469192069e-15
   7    -0.028493461552077
   8      -0.0281985710919
   9    3.4642577766706e-15
  10    -0.025482962017319
  11    -0.0017000878966592
  12    5.5077609010328e-16
  13    0.0040102914497388
  14    0.0076409329086327
  15    0.0071883365669772
  16    -3.2787186854785e-16
  17    -0.0022907208585458
  18    -1.1175141157857e-16
  19    0.0071400100075995
  20    0.0048791209918089
  21    -2.6142077652741e-16
  22    -0.0011367123607264
  23    1.0018232974256e-16
  24     0.018458381867058
  25      0.15367301056022
  26    0.0082067000678785
  27    -0.019054714318792
  28    0.0073556870613406
  29    5.3951516575655e-15
  30      0.15187243162644
  31    -0.024377636918342
  32    2.9219509039251e-15
  33    -0.033329428475137
  34    -0.00038821330640158
  35    4.6301830924109e-17
  36    -0.013066013894559
  37     0.022259213683353
  38     0.013970653502407
  39    3.9010456371549e-16
  40    -0.001496711804743
  41    2.460510356587e-16
  42    -0.014914496846943
  43    -0.0091078362492141
  44    3.9643425250653e-16
  45    -0.0033162660800497
  46    1.236886277723e-16
  47    -0.0037155919727811
  48    -0.030847542430701
  49    -0.0008736450712668
  50    -0.0039447576834936
  51    1.9184717235226e-16
  52    0.0051731461258141
  53    0.0098977927761332
  54    1.7267015682345e-16
  55    -0.0072521442806526
 Sym= A
 Ene=               6
 Spin= Alpha
 Occup=    1.00000
   1     0.024426986284474
   2    -0.0080784998354016
   3    -0.0076129994099066
   4    0.0022268305441645
   5     0.002063554310535
   6    -2.4472757450031e-16
   7    0.0073665457442357
   8    0.0012313229395787
   9    -2.847607898386e-15
  10    0.0046748022979399
  11    -0.00026028712753671
  12    -2.0208530666064e-15
  13    -0.0005949199267089
  14    -0.001269808377842
  15    -0.00069431110459956
  16    -7.6541809116562e-16
  17    -1.6793020213841e-05
  18    -2.5113468639965e-16
  19    -0.0016103190072245
  20    -0.0010835887335889
  21    2.9646863011913e-15
  22    -0.00027490135181669
  23    7.0607148029143e-16
  24       1.0050761658948
  25    0.0056201690174964
  26    -0.022517372123851
  27    -0.0078295603542954
  28    0.00063770039160711
  29    -1.8743577238034e-16
  30    -0.0051674711343818
  31    -0.004916221010549
  32    3.4949615907886e-15
  33    0.00016826874296537
  34    -0.0019829869634177
  35    1.5542535018805e-15
  36    0.0005629461462762
  37    0.00020968491929922
  38    -0.00061882182008578
  39    1.4101311319731e-16
  40    0.00034451266939888
  41    3.2488362865312e-17
  42    -0.0011942428375027
  43    -0.00019856747104169
  44    2.4056735777016e-15
  45    -0.00041784055062179
  46    1.1170880398771e-15
  47    -0.00045293833762875
  48     0.014877044018536
  49    0.0015918445214169
  50    0.0012765059082361
  51    -1.2883324135217e-16
  52    -0.00084140283860043
  53    -0.0053278122570844
  54    -4.1332095276462e-16
  55    0.0035686908744679
 Sym= A
 Ene=               7
 Spin= Alpha
 Occup=    1.00000
   1         1.00578293352
   2     0.010891730682425
   3    -0.041540635347215
   4    -0.011491067637406
   5    -0.00052308507539039
   6    -4.536302627261e-17
   7    -0.0029019174338771
   8    0.0045610019015637
   9    -7.9258118043983e-17
  10     0.017651044578837
  11    0.00079565894365831
  12    -4.0671788312455e-17
  13    0.0017288175047434
  14    0.00038271631784919
  15    0.00018223185411139
  16    3.931839029811e-17
  17    1.2144713929255e-05
  18    -1.4697684851385e-17
  19    -0.0039107358203964
  20    -0.0018625432593856
  21    1.2001439380045e-17
  22    -0.00013067455987291
  23    -1.5823520987146e-17
  24    -0.024594075318827
  25    -0.0016047005791699
  26     0.027854391732697
  27    0.0079114475708854
  28    0.00063373171878331
  29    -5.3082512985877e-17
  30    0.00071659096007355
  31    0.0063731768888747
  32    -2.7741277581558e-17
  33     0.021183136515271
  34    0.00017326609355055
  35    -3.9973388505555e-17
  36      0.00238168161971
  37    -0.00030961103394188
  38    -0.00041507572536169
  39    -1.5571407267923e-17
  40    0.00013107138960951
  41    -1.9211124300655e-18
  42    0.0054015691218408
  43     0.004134375917902
  44    1.4084210375459e-17
  45    0.00074435793929812
  46    -2.9703093079801e-18
  47    -0.00040497517871302
  48    0.0030880916791192
  49    -0.00046216100454755
  50    0.00026660911981591
  51    2.2697224889488e-19
  52    -0.00065973341050227
  53    -0.0013636795940812
  54    2.3102069087642e-17
  55    -1.3890593459373e-05
 Sym= A
 Ene=               8
 Spin= Alpha
 Occup=    0.00000
   1    -0.003012305899611
   2     -0.03941841137911
   3    -0.084387608701929
   4      0.02151248941497
   5    0.00072753516125712
   6    -1.2242385088464e-15
   7    -0.065245898171218
   8    0.0035078525568613
   9    5.2087968428846e-16
  10    -0.052404293834385
  11     0.050195102504474
  12    6.5003814549008e-15
  13     -0.10629380205016
  14    -0.0056653531618797
  15    0.0016696883380708
  16    6.9640836689845e-17
  17    0.0026172887629968
  18    2.0014696527131e-16
  19    -0.012443047168053
  20    -0.00028913181166246
  21    -8.3308649097088e-16
  22    0.0045868068163828
  23    -6.0644615277713e-16
  24    -0.010638616084843
  25     -0.12231632211978
  26     -0.29415443404777
  27     -0.55929675847462
  28     -0.13024704419155
  29    1.3502706221101e-16
  30      0.12365473300641
  31     -0.12993609512937
  32    -3.7597750891736e-15
  33     0.097041728047343
  34     -0.13712667030142
  35    -1.4216979796666e-15
  36      0.12510882445436
  37    0.0026524077428684
  38    -0.00060423490807598
  39    -2.2514916384615e-16
  40    -0.00089660415099997
  41    -2.4231633514548e-16
  42    -0.0083444047107478
  43     0.010146074361052
  44    -6.7969917696354e-16
  45    -0.0077722309062571
  46    -7.7875504642694e-18
  47      0.03764589699173
  48      0.38961771267587
  49       1.2506919557367
  50     0.018233671409518
  51    9.3275854691217e-17
  52    -0.0079614654567808
  53     0.030492478476457
  54    1.498537354514e-15
  55    -0.023916123803106
 Sym= A
 Ene=               9
 Spin= Alpha
 Occup=    0.00000
   1    1.4501296937568e-14
   2    -8.7277365484086e-14
   3    -6.9697764449918e-13
   4    -2.742329616858e-13
   5    -8.0264411536851e-14
   6     -0.44950153848565
   7    -1.2133159822012e-13
   8    2.7377580117348e-14
   9     -0.31660626229091
  10    1.4642853428858e-13
  11    8.6932088894073e-13
  12     0.020518174357622
  13    -1.8960891960169e-13
  14    -4.6547253758377e-14
  15    8.5111915734834e-15
  16    -0.0059593988278451
  17    5.100497955198e-14
  18     0.019731407141999
  19    -1.9957652872894e-13
  20    -2.5580765588703e-14
  21    0.0091198050200769
  22    8.3791263700897e-14
  23     0.041029312429096
  24    3.3367856685216e-14
  25    1.4917236386569e-14
  26    -1.7596390715244e-13
  27    -6.0792160720256e-13
  28    -7.5721274325089e-13
  29      0.14891994146961
  30    1.6933573698713e-14
  31    -3.7344897694813e-13
  32      0.38209509137436
  33    5.7290003895355e-13
  34    -1.9122824616261e-14
  35      0.35864227743845
  36    1.5458010346677e-12
  37    3.5083886501994e-14
  38    -2.1130504926125e-13
  39    -0.074940703407894
  40    -4.3521105236454e-14
  41    -0.0080796982692435
  42    3.5179811819218e-14
  43    -4.9459830959704e-14
  44    -0.076661812113943
  45    2.779534009475e-13
  46      0.13480420866157
  47    8.4031473117916e-13
  48    1.2588939539572e-12
  49    -2.133754593875e-13
  50    1.0437875124699e-13
  51     0.055796106957976
  52    -3.9312278227477e-14
  53    -1.1043571609284e-13
  54      0.17821609216352
  55    3.9956093099831e-13
 Sym= A
 Ene=              10
 Spin= Alpha
 Occup=    0.00000
   1    0.0097561411358435
   2    -0.038052939736399
   3     -0.36999605230717
   4    -0.050516221365035
   5    -0.042055173014963
   6    8.8991455233124e-13
   7    -0.057385773570394
   8    -0.0015193573117441
   9    6.2087457737385e-13
  10     0.075284568538124
  11      0.45003652512741
  12    -9.1363981929237e-14
  13     -0.12126946453623
  14    -0.025070245245094
  15    0.0037030849015504
  16    4.137918453394e-15
  17     0.023247245046335
  18    -4.4496928023372e-14
  19    -0.098616395435654
  20    -0.0095756112675783
  21    -3.2330723167045e-14
  22     0.045329121851426
  23    -1.0516390910273e-13
  24     0.014113158965252
  25    0.0022860577533275
  26    -0.071021483009873
  27      -0.2886029292096
  28     -0.36760705047745
  29    -1.8911861435582e-13
  30    0.0074421042922244
  31     -0.15606880175504
  32    -7.5979812235981e-13
  33      0.27044672730011
  34    -0.027734651528537
  35    -7.7085095479252e-13
  36      0.71103611403227
  37     0.023614832411487
  38     -0.10342821564814
  39    1.6163468540641e-13
  40    -0.016676285205661
  41    3.0914218691215e-14
  42     0.022033957029176
  43    -0.021264377524293
  44    1.6334584050416e-13
  45      0.13667438258061
  46    -2.9762308463919e-13
  47      0.40818184600453
  48      0.53907079589365
  49     -0.12224776046253
  50     0.050922810390993
  51    -1.2299263816333e-13
  52    -0.020447514240362
  53    -0.040987527717744
  54    -4.0899180334019e-13
  55      0.20432591550413
 Sym= A
 Ene=              11
 Spin= Alpha
 Occup=    0.00000
   1    0.0020964940888004
   2     0.072370269171029
   3      0.34035258259288
   4      0.22058773259346
   5     0.099682394037121
   6    1.7275087254441e-14
   7      -0.1750387374307
   8      0.13145403438741
   9    -5.3314415582337e-15
  10      -0.2235271062687
  11      0.11588309701671
  12    1.2044951245118e-13
  13      0.11593278364167
  14    -0.012963209020128
  15     0.018843085377099
  16    -1.4246698845229e-15
  17      0.00338209187685
  18    -4.9617511996822e-15
  19     0.017277494839874
  20    0.0002153221995704
  21    -1.218734494803e-14
  22    -0.029307901519595
  23    7.8725792630185e-15
  24    -0.078078077737305
  25     -0.35945317318332
  26     -0.58308599128051
  27      0.47684876384167
  28      -0.3508848019822
  29    -5.0159958936245e-14
  30      0.31642523439443
  31      -0.1557354272451
  32    -5.1684922429632e-14
  33     -0.30438329421231
  34     -0.25957076018226
  35    -7.7665227925343e-14
  36     -0.35915512706691
  37       0.1134801835519
  38     0.025644155804799
  39    -9.5928268938394e-15
  40    -0.0043484820811107
  41    -1.6897517670997e-15
  42     0.099613796744051
  43     -0.21988661911784
  44    1.5524449016345e-14
  45    -0.019161815051356
  46    -1.4449780855704e-14
  47      0.57325509879387
  48      0.19320829015591
  49     -0.70246077737086
  50    0.0012297171048936
  51    -1.0016092398195e-15
  52    -0.094146191019907
  53     -0.21410141116144
  54    8.0060790436482e-14
  55    -0.041262762574547
 Sym= A
 Ene=              12
 Spin= Alpha
 Occup=    0.00000
   1    -0.027265028022221
   2      -0.2232386078274
   3     -0.67356616672814
   4       1.1799412941602
   5      0.12106184761122
   6    3.1724578476228e-14
   7      0.15652343078386
   8      0.15356403776575
   9    8.2290494129736e-14
  10      0.28911173100446
  11      0.31381431032914
  12    1.1473820794902e-13
  13       0.2806416725814
  14    -0.059423533691795
  15      0.11684782705718
  16    -2.0126719136317e-14
  17    -0.0026488464375217
  18    -8.4705486746466e-15
  19     0.064035635827049
  20    -0.056357029221688
  21    -3.5067081813088e-14
  22    -0.015113416215813
  23    1.8835320240614e-14
  24      0.25127884466366
  25      0.69638040893081
  26    -0.097813123532972
  27     0.019894751524695
  28      0.32953048522959
  29    -6.5440408757159e-14
  30      0.42377481872033
  31     -0.26788304685169
  32    -2.12774730941e-13
  33      0.23528476742326
  34    -0.0093388526563027
  35    -1.02725045867e-13
  36     -0.53139370747334
  37     0.025736262425576
  38     0.034274982302711
  39    -8.7043653687328e-15
  40     0.084973382963224
  41    5.5179928981906e-15
  42      0.36341367705488
  43     -0.05105807959333
  44    -8.8453534273197e-15
  45    -0.039917178300014
  46    -8.0152594581812e-14
  47      -0.3098189567951
  48      0.45233729541575
  49     -0.80959841940087
  50     0.063612402518689
  51    4.6861899729685e-15
  52    -0.096273785169213
  53      0.18660089342458
  54    2.405059575772e-13
  55     -0.24514681729372
 Sym= A
 Ene=              13
 Spin= Alpha
 Occup=    0.00000
   1     0.011805762814202
   2    -0.017082150272458
   3     -0.90021797707572
   4       1.8294719488867
   5     -0.10385543296684
   6    4.4054420251137e-14
   7     -0.47382237349512
   8       -0.135827327009
   9    1.7369532870243e-13
  10      0.27558966005262
  11     0.056198477963479
  12    1.0998928006776e-13
  13      0.07379135507029
  14    -0.013104442991883
  15      0.22726238607925
  16    8.281662959692e-15
  17     -0.14346595560875
  18    9.5361180477472e-14
  19    -0.0080104724726813
  20     -0.29158061882867
  21    -1.6848347440661e-13
  22    -0.092566430158813
  23    5.8737884964934e-14
  24     -0.17655420683823
  25     -0.51085689876317
  26      0.45856378558543
  27     -0.37684864240413
  28     -0.11969641757017
  29    -2.1638577000066e-13
  30     -0.37337858305304
  31     0.039050958900031
  32    -7.9758091866996e-14
  33      0.53995901424496
  34     0.080401729424174
  35    -4.055502142294e-15
  36     -0.90186261049292
  37     -0.10662807428154
  38    -0.028595402513102
  39    3.5672428891731e-14
  40      -0.1897808442775
  41    -8.2615380277273e-14
  42      0.16100069801929
  43      0.29140094164612
  44    -1.9290737694709e-13
  45     -0.14014541695705
  46    6.084570955907e-14
  47     -0.18519801417569
  48      0.38268754865758
  49     -0.91413543743656
  50    -0.080134406081454
  51    3.6326291856082e-14
  52      0.09013053564158
  53     0.025098089184961
  54    -3.1548664512947e-14
  55     0.029202496300854
 Sym= A
 Ene=              14
 Spin= Alpha
 Occup=    0.00000
   1     -0.49287932379948
   2     -0.80882507665319
   3       4.6242864036436
   4       3.7249731174767
   5     0.018909945613384
   6    3.1444194858567e-14
   7    -0.094777911227028
   8     -0.99467125408359
   9    4.2870433127382e-14
  10      -3.3925342283937
  11    -0.083666046909712
  12    -4.1325147678405e-14
  13     -0.66806658428175
  14       0.2070289607778
  15      0.10096730967645
  16    -1.2807776278669e-14
  17     0.049440520133573
  18    -5.4200824875586e-14
  19       1.0292405079378
  20      0.57243558633301
  21    -3.577020847689e-15
  22     0.096668438169134
  23    -6.7873247548059e-14
  24      0.37032147958627
  25      0.75341854980011
  26      -6.6197580426369
  27      -2.7253517124719
  28     -0.45466612201125
  29    -4.0947935067043e-13
  30      -1.1692307507933
  31     -0.79129102725627
  32    1.4455444495447e-13
  33      -2.2552506467038
  34     -0.47073972970055
  35    -4.1488131651329e-14
  36     -0.64693504883109
  37      -0.2534090162095
  38     -0.13910558299137
  39    -1.2097965469988e-13
  40     0.053947845041667
  41    6.1665933118691e-14
  42     -0.56421111622884
  43     -0.36620620897368
  44    1.6850180488873e-13
  45    -0.032972762639954
  46    4.9147148335163e-14
  47      0.11546227109898
  48      0.81880206748054
  49      0.12246840956711
  50     0.021709755060784
  51    2.050365406626e-13
  52    -0.012403325298921
  53     -0.34333858127312
  54    1.0117073458869e-13
  55     -0.15813478346676
 Sym= A
 Ene=              15
 Spin= Alpha
 Occup=    0.00000
   1    -0.016947110856454
   2    -0.015521502831599
   3      0.28951043119893
   4      0.82554024229879
   5     -0.95802760293374
   6    3.5342922716149e-13
   7      0.33574906327699
   8       1.8243884366963
   9    -8.1950035814438e-13
  10       -1.029820426464
  11     -0.22313813227986
  12    1.3849540214361e-13
  13     0.085528347802911
  14    -0.039966586531036
  15       0.1207223496329
  16    3.2547319409392e-13
  17     0.031869111982405
  18    -1.525784129608e-12
  19      0.37106550510267
  20     -0.38469374065365
  21    1.7004467821653e-13
  22     -0.17863861681537
  23    7.6236928360552e-13
  24    -0.038687809751715
  25    -0.084009852359283
  26     -0.20773959795185
  27      0.25118817110112
  28     -0.05335265103469
  29    -7.5273017303993e-14
  30    -0.013785236684496
  31     -0.88475456741553
  32    3.8605929260203e-13
  33       -0.238300257271
  34      0.14209755316926
  35    4.8730633662587e-14
  36     -0.49976783325782
  37    -0.054406859147713
  38     0.062565188426405
  39    -6.6155834150961e-14
  40     0.056469816836081
  41    3.8874300447156e-13
  42      0.39210545845512
  43     -0.63705953671679
  44    4.0119664094199e-13
  45     -0.26645027266618
  46    -4.5693196906986e-14
  47     0.038448595894854
  48     -0.74704067320134
  49      -0.3601382044169
  50     0.068775454860813
  51    6.0317266692682e-14
  52     0.028430111278525
  53      0.28178785044075
  54    4.8862802118207e-14
  55    -0.031884318106571
 Sym= A
 Ene=              16
 Spin= Alpha
 Occup=    0.00000
   1    -0.00018499529631725
   2    0.00058119655412998
   3    0.0073833373750544
   4    -0.081875832547064
   5    0.0025396426502825
   6     -0.17608816928883
   7     0.012667463034607
   8     0.012011179274454
   9     -0.25102230526244
  10    -0.002771702249096
  11    -0.071336981466582
  12       2.0289565628551
  13    -0.0084609232533009
  14    0.00046153820605609
  15    -0.0048752744246941
  16     0.014065742961497
  17    0.0021270787063677
  18    0.0016142248840387
  19    -0.00061049220879101
  20    0.0049911250282656
  21    -0.040569606436705
  22    0.0036101790814797
  23     -0.01069047621237
  24    0.0035271519493035
  25    0.0084687272930435
  26     0.020803469892549
  27      0.27670941612842
  28    0.00021919000386851
  29     0.077333863893899
  30    -0.0029371492364849
  31     0.014522316709748
  32    0.0077484995022308
  33     0.001549736814149
  34      0.11167549620273
  35      -1.6150686949679
  36    -0.021250046472162
  37    -0.0049413328312342
  38    -0.0010101648154322
  39    0.0066879764931299
  40    0.0037126626523181
  41    0.0037079512183097
  42    -0.0054656948861379
  43    0.0023902332476085
  44    -0.056027478666231
  45    0.0062527984010827
  46    -0.029617079953174
  47    -0.019125452418383
  48     -0.10702902518857
  49     -0.14223447346504
  50    0.0042006771464124
  51    -0.0044174854286421
  52    0.0012536885913573
  53     0.070317950828872
  54    -0.013864240494063
  55    -0.031884020201632
 Sym= A
 Ene=              17
 Spin= Alpha