[Molden Format]
made by pyscf v[2.13.1]
[Atoms] (AU)
O   1   8     0.21099695469856     0.00000000000000     2.15462460678861
N   2   7    -0.44776862100326     0.00000000000000    -0.03589262653049
H   3   1     1.18163474748449     0.00000000000000    -1.17386889907833
[GTO]
1 0
 s    8 1.00
                 11720  0.00070964594651845
                  1759  0.0054672722921914
                 400.8   0.027823118610189
                 113.7    0.10474773971146
                 37.03    0.28292084635691
                 13.27    0.44849523869833
                 5.025    0.27081688521277
                 1.013    0.01545029160744
 s    8 1.00
                 11720  -0.00031444341168873
                  1759  -0.0024821376810179
                 400.8  -0.012316355381583
                 113.7  -0.050538917343672
                 37.03   -0.13938490331632
                 13.27   -0.32507749481778
                 5.025   -0.22984830758785
                 1.013     1.0953793467883
 s    1 1.00
                0.3023                   1
 s    1 1.00
               0.07896                   1
 p    3 1.00
                  17.7   0.062679166281506
                 3.854    0.33353656587936
                 1.046    0.74123964163973
 p    1 1.00
                0.2753                   1
 p    1 1.00
               0.06856                   1
 d    1 1.00
                 1.185                   1
 d    1 1.00
                 0.332                   1

2 0
 s    8 1.00
                  9046  0.00069961741342552
                  1357  0.0053860546299287
                 309.3   0.027391021189057
                 87.73    0.10315059198201
                 28.56    0.27857066331743
                 10.21    0.44829484945412
                 3.838    0.27808592839527
                0.7466   0.015431561233271
 s    8 1.00
                  9046  -0.00030499009595337
                  1357  -0.0024080263785077
                 309.3   -0.01194444872518
                 87.73  -0.048925992909017
                 28.56   -0.13447272472496
                 10.21   -0.31511257770011
                 3.838   -0.24285783254964
                0.7466     1.0943822068542
 s    1 1.00
                0.2248                   1
 s    1 1.00
               0.06124                   1
 p    3 1.00
                 13.55   0.058905676772132
                 2.917    0.32046110671427
                0.7973    0.75304206179207
 p    1 1.00
                0.2185                   1
 p    1 1.00
               0.05611                   1
 d    1 1.00
                 0.817                   1
 d    1 1.00
                  0.23                   1

3 0
 s    3 1.00
                 13.01   0.033498726389998
                 1.962    0.23480080117413
                0.4446     0.8136829578829
 s    1 1.00
                 0.122                   1
 s    1 1.00
               0.02974                   1
 p    1 1.00
                 0.727                   1
 p    1 1.00
                 0.141                   1

[5d]
[7f]
[9g]

[MO]
 Sym= A
 Ene=               0
 Spin= Alpha
 Occup=    1.00000
   1    -2.1768317676266e-09
   2    -3.1910621829774e-11
   3    8.336018730079e-11
   4    2.6168521378873e-11
   5    1.2763450759171e-11
   6      0.48293643377382
   7    8.9758311643464e-12
   8    -2.2138198609588e-12
   9      0.29325120273613
  10    -3.7309621413587e-11
  11    5.3788300081091e-13
  12     0.032802356604109
  13    -4.8344377887902e-12
  14    -1.8699946557777e-12
  15    -9.682042457931e-13
  16    -0.023547370697403
  17    -2.9279044235719e-14
  18    -0.0062388229740347
  19    7.2078759855417e-12
  20    3.3393211245963e-12
  21    -0.026807233320924
  22    1.9190301463873e-14
  23    -0.0057340089517254
  24    7.4364647749346e-10
  25    1.3749402573022e-12
  26    -7.8063207951154e-11
  27    -2.0043749499164e-11
  28    -9.1263489106434e-12
  29      0.40143086921762
  30    -1.9685494152576e-12
  31    -2.0748533631008e-11
  32      0.20915817645098
  33    -4.5369179646323e-11
  34    -3.1408922020278e-12
  35     0.016157129053395
  36    -4.7544534704675e-12
  37    6.5003420793479e-13
  38    1.1397167716464e-12
  39      0.03072491661808
  40    -2.9216800380869e-13
  41     0.018563257983275
  42    -1.2874621141677e-11
  43    -9.4084251413703e-12
  44    -0.0018467998350396
  45    -1.4499077529919e-12
  46     0.011167004887345
  47    -1.0645562117883e-11
  48    -1.0303034241319e-12
  49    1.3704778448186e-12
  50    9.855457841958e-13
  51     0.011418005103861
  52    3.3439026501772e-13
  53    -1.0501285416784e-12
  54    0.0029799986058222
  55    2.8374292458262e-12
 Sym= A
 Ene=               1
 Spin= Alpha
 Occup=    1.00000
   1    -0.0026086473849253
   2    -0.0071198269453251
   3    -3.1379878145499e-05
   4    -0.0062952090408344
   5      0.56933773504945
   6    -9.436239410196e-12
   7    -0.090464029834242
   8      0.39134746613422
   9    -5.7299121114696e-12
  10    -0.073421384293196
  11      0.12675335900675
  12    -6.4042787537778e-13
  13    -0.023684157147652
  14    -0.00034194302188114
  15    -0.0050022767094498
  16    4.6016072890417e-13
  17    -0.0014910819869806
  18    1.2188764259452e-13
  19    0.0018344857802889
  20    -0.0038350503401387
  21    5.2372685865959e-13
  22    -0.0018931267158384
  23    1.1205571467069e-13
  24    -0.00073321809485753
  25     0.091953089234648
  26       0.2277425106806
  27      0.15397728158134
  28     -0.31774867874991
  29    -7.8437729826894e-12
  30    -0.048855507789238
  31     -0.20182367090129
  32    -4.0867306143476e-12
  33     -0.03033306388962
  34    -0.073118956731624
  35    -3.1610469604945e-13
  36    -0.0042257007140353
  37     -0.01270025959765
  38     0.025158914199665
  39    -6.0032552490477e-13
  40    -0.008204881697152
  41    -3.6271665403825e-13
  42    -9.1359927766505e-06
  43     0.002486145396051
  44    3.6005464930112e-14
  45    0.0011185672829656
  46    -2.1825754480882e-13
  47     -0.26492538151445
  48     -0.18044115714277
  49    -0.036875690584509
  50    0.0033453520043409
  51    -2.2299687944788e-13
  52    -0.0084994895201297
  53    -0.018378624165622
  54    -5.8423908011776e-14
  55     0.020643727783177
 Sym= A
 Ene=               2
 Spin= Alpha
 Occup=    1.00000
   1    -0.0031432341097394
   2     0.045058660871588
   3      0.14799436887475
   4        0.121815264028
   5     -0.17395851118108
   6    -3.0251313653739e-12
   7      0.44919892330817
   8     -0.11241859027411
   9    -1.8373881274054e-12
  10      0.21017448012182
  11    -0.014429641845435
  12    -2.046772458789e-13
  13    -0.0011752886253875
  14    -0.021210755309398
  15    0.0054883614695843
  16    1.474320813149e-13
  17    0.0021997064657205
  18    3.9030783858283e-14
  19    -0.0077062578586879
  20     0.011584546797416
  21    1.682362824362e-13
  22    0.00033883488701873
  23    3.6102303511475e-14
  24    -0.0017086167026897
  25     0.020516003647197
  26      0.12200318291175
  27    -0.015263095318291
  28     -0.36849010086673
  29    -2.5148730408061e-12
  30     -0.27177845240477
  31     -0.17599990719495
  32    -1.3100156721245e-12
  33     -0.12426180727828
  34    -0.025172832799674
  35    -1.0245382585416e-13
  36     -0.02276615408305
  37    -0.003899789859352
  38    -0.031611656747154
  39    -1.9253127459181e-13
  40    -0.016340437214575
  41    -1.1628570590279e-13
  42    0.0005141294487231
  43    -0.0083060448214681
  44    1.1917862761453e-14
  45    -0.0054777240226045
  46    -6.9975780954374e-14
  47    -0.052695265678001
  48    0.0036375134956994
  49    -0.00055043062797199
  50    -0.0017228515722998
  51    -7.1528760078757e-14
  52    -0.011529130298156
  53    -0.011648546814913
  54    -1.8389434968505e-14
  55    -0.0013466829584562
 Sym= A
 Ene=               3
 Spin= Alpha
 Occup=    1.00000
   1    0.00031588587290539
   2     0.020290544659991
   3    -0.024617396679655
   4    -0.079362307948794
   5     -0.28260097265399
   6    -1.0671696578245e-12
   7     -0.24715834803977
   8     -0.15302677193875
   9    -6.4820544865689e-13
  10     -0.10957968661872
  11    0.0040836159268081
  12    -7.1644960466153e-14
  13    0.0021074501957928
  14    0.0056932603414998
  15     0.019233897605177
  16    5.2057056959887e-14
  17    0.0044999831768944
  18    1.3783987728223e-14
  19    -0.0071723646513971
  20     0.017328720943354
  21    5.9243147962154e-14
  22    0.00033853806266465
  23    1.2699609194838e-14
  24    0.0025138744875617
  25     0.045590045555316
  26     0.064611120349919
  27     0.072362791081925
  28     -0.27997848978149
  29    -8.8687377547545e-13
  30      0.37245450338983
  31    -0.093763648831587
  32    -4.6207091123824e-13
  33     0.075784249278832
  34    -0.0077333816577184
  35    -3.6066542722676e-14
  36     0.011723407383971
  37     0.029460937607091
  38     0.012829540405852
  39    -6.7888545436654e-14
  40    -0.015604908542651
  41    -4.1032307518424e-14
  42    -0.016605236496626
  43    -0.011847469713475
  44    4.141034084004e-15
  45     0.012505361261341
  46    -2.4593418617901e-14
  47     -0.32359952872697
  48     -0.12712785739768
  49    -0.011353045256568
  50     0.019509720956059
  51    -2.5225690488545e-14
  52    -0.012543774218752
  53    0.0076376191105296
  54    -6.7630988790775e-15
  55    -0.014881870389817
 Sym= A
 Ene=               4
 Spin= Alpha
 Occup=    1.00000
   1    0.00074060768361343
   2      0.30041474115673
   3      0.44593070654128
   4      0.12113449113756
   5      0.10632950375152
   6    -7.0461800897193e-12
   7      0.14735249326082
   8     0.041207873494758
   9    -4.2779119862082e-12
  10     0.031418112231852
  11    -0.0030386779694712
  12    -4.7918436246233e-13
  13    -0.011321543976658
  14    -0.0082712811757425
  15    -0.0064291456907054
  16    3.4357815033071e-13
  17    -0.0031701799915966
  18    9.1061653884932e-14
  19    -0.004051050605074
  20    -0.00080503130026522
  21    3.9087904415991e-13
  22    -0.0040888414946531
  23    8.3522807204138e-14
  24    -0.003498053652467
  25       -0.376628187363
  26     -0.43271669787535
  27    -0.098945094975249
  28     0.047011904330086
  29    -5.8568515827543e-12
  30      0.12182530081226
  31     0.053607560695251
  32    -3.0521620260057e-12
  33    -0.018225648637331
  34    0.0021454598611472
  35    -2.3503677346717e-13
  36    -0.016027860696967
  37    0.0054159449297584
  38     0.014204642558266
  39    -4.4828874307009e-13
  40    0.0031228032385446
  41    -2.7085722071633e-13
  42    -0.020993181078979
  43    -0.021136559722538
  44    2.6591779229978e-14
  45     0.015330499516881
  46    -1.6303653195299e-13
  47     -0.16928477944843
  48    -0.0075412268295964
  49    0.0057561939641598
  50     0.022002639676714
  51    -1.665764898588e-13
  52    -0.0099659504784476
  53    0.0026596429945485
  54    -4.3614214602406e-14
  55    0.0011700489942549
 Sym= A
 Ene=               5
 Spin= Alpha
 Occup=    1.00000
   1    -0.0097296850692276
   2      0.38073482491354
   3      0.41137228684741
   4     0.041800420702933
   5     -0.01470935330347
   6    1.288483402515e-11
   7    -0.050138771295264
   8    -0.0012462112666974
   9    7.8233770900464e-12
  10    -0.025560755101261
  11    0.0008194163616078
  12    8.7534832546801e-13
  13     0.007486426532053
  14      0.01085211548287
  15    0.0055579670673649
  16    -6.2824161847667e-13
  17    -0.0024649510615716
  18    -1.6648445803918e-13
  19     0.011071088566455
  20    0.0013077216011404
  21    -7.1513950232295e-13
  22    7.1838795661894e-05
  23    -1.5278185354624e-13
  24    -0.010995130168978
  25      0.28570132269737
  26      0.14207632407089
  27    0.0010678776860385
  28     0.063498934440286
  29    1.0710160836283e-11
  30     0.054060521988788
  31    -0.019602913543586
  32    5.5805138415426e-12
  33    -0.040900597692199
  34    0.00062681180447373
  35    4.3072804744802e-13
  36    -0.010175532530319
  37     0.015851515210469
  38    0.0092562950157068
  39    8.1971927259476e-13
  40    0.0012483566702159
  41    4.9527311787376e-13
  42    -0.0053483810811058
  43    0.00035584091265068
  44    -4.8802511420136e-14
  45      -0.0112466490655
  46    2.978926296728e-13
  47      0.12184216016483
  48    -0.0067857941512248
  49    -0.0010499628168374
  50    -0.015900672026402
  51    3.0467477828227e-13
  52     0.012109610529218
  53    0.0085661520750642
  54    7.9732095350303e-14
  55    -0.0048014887113734
 Sym= A
 Ene=               6
 Spin= Alpha
 Occup=    1.00000
   1     -0.07744372216029
   2      0.00153803346155
   3    0.0065793375827417
   4    0.0025076256547977
   5    -9.7200785174586e-05
   6    -4.3602770006575e-10
   7    -0.00072370850920764
   8    -8.8882923783879e-05
   9    -2.6476973317112e-10
  10    -0.00096406228109139
  11    -0.00021475861424257
  12    -2.9618172246963e-11
  13    -0.00048159482405114
  14    -0.00071294877455208
  15    -0.00038747304246943
  16    2.1259383550537e-11
  17    -6.0393653715664e-05
  18    5.6325795288586e-12
  19    -0.00087672196676289
  20    -0.0007795158928055
  21    2.4206321312557e-11
  22    -0.00025125596682793
  23    5.1777577588111e-12
  24       1.0026898875002
  25     0.014963809489285
  26     -0.02104274685266
  27    -0.0076414964791576
  28    0.0031728247991054
  29    -3.6243894029485e-10
  30    0.0025938995996383
  31    -0.0053784957304352
  32    -1.8883856896441e-10
  33    -0.0012057940145387
  34    -0.0017734272576388
  35    -1.4586193607157e-11
  36    0.00037489303373169
  37    0.0010482852576369
  38    9.1404781147479e-05
  39    -2.7740377304521e-11
  40    0.00036086768779482
  41    -1.6760124043671e-11
  42    -0.002038365212802
  43    -0.00062053606134448
  44    1.6698200902477e-12
  45    -0.00066754215364095
  46    -1.0081210110912e-11
  47    0.0007911166526887
  48     0.013088303608729
  49    0.0015047429567847
  50    0.00095515175934418
  51    -1.03090692361e-11
  52    -0.00041314864484996
  53    -0.0047169188992513
  54    -2.6909541507451e-12
  55    0.0032572411645513
 Sym= A
 Ene=               7
 Spin= Alpha
 Occup=    1.00000
   1       1.0030605608786
   2     0.013192462556834
   3    -0.038571222153514
   4    -0.010861242352393
   5    -0.00071275013847631
   6    1.0144959439673e-09
   7    -0.0026855932196602
   8    0.0044620946495941
   9    6.1602723792995e-10
  10     0.017721166684724
  11    0.00076117620447611
  12    6.8907086309018e-11
  13    0.0017019139138256
  14    0.00032801904613637
  15    0.00016918911604728
  16    -4.9465582764886e-11
  17    -5.2944271246921e-06
  18    -1.3105825112512e-11
  19    -0.0039908577123373
  20    -0.0019299795260553
  21    -5.6313168446142e-11
  22    -0.00016269216207717
  23    -1.2045274169861e-11
  24     0.077057293073429
  25    0.00049680300775323
  26     0.025860984270651
  27     0.007032820944129
  28    0.00087917045304526
  29    8.4327864593476e-10
  30    0.0013383721109996
  31    0.0056873071115024
  32    4.3937520326958e-10
  33     0.020903689804032
  34    -2.136707125788e-05
  35    3.3941110444617e-11
  36    0.0023507689187587
  37    -0.00012124493961661
  38    -0.00036888147600475
  39    6.4543286794657e-11
  40    0.00015851644444184
  41    3.8995508647546e-11
  42    0.0051597970771653
  43    0.0040477416885904
  44    -3.879279628423e-12
  45    0.00066009458571209
  46    2.3458439030384e-11
  47    -0.00027668722799149
  48    0.0043483853504957
  49    -0.0003106192136087
  50    0.00034254401514545
  51    2.3985588622242e-11
  52    -0.00068646490384456
  53    -0.0018161250147981
  54    6.2600126225193e-12
  55    0.00029075326491944
 Sym= A
 Ene=               8
 Spin= Alpha
 Occup=    0.00000
   1    -1.6438336061884e-10
   2    -3.0802509379464e-10
   3    2.2897455318924e-09
   4    2.5358149143195e-09
   5    -1.2710212859947e-10
   6     -0.46118199493566
   7    -8.3697224177489e-11
   8    6.8261383932559e-10
   9     -0.36384885008476
  10    -1.2565606109625e-09
  11    -6.8153788641043e-12
  12     -0.28680320449871
  13    -7.198550012631e-10
  14    -9.5158047184362e-11
  15    3.7138291001725e-10
  16    -0.0047975741696983
  17    3.4400573187927e-10
  18    -0.00095094395702363
  19    4.7871754089363e-10
  20    -6.7048373344451e-10
  21    -0.0016603071916104
  22    -7.2616450660522e-10
  23    -0.0047516213420305
  24    4.1434940811757e-10
  25    7.4419567202604e-10
  26    -3.9361927124625e-09
  27    -3.2918313056112e-09
  28    -1.4805654050139e-10
  29      0.48201679821939
  30    2.0985531485457e-10
  31    -2.4409808082693e-09
  32      0.40408713858937
  33    -1.1685908809363e-09
  34    -5.9116903683174e-10
  35      0.32393122897831
  36    -4.0041383395848e-10
  37    1.1368351668585e-11
  38    1.2985758067697e-10
  39    -0.018321035666298
  40    -1.7550201020535e-10
  41    0.0096800772249566
  42    -1.0301999411009e-10
  43    -8.2200627607109e-10
  44    -0.020244633781685
  45    -4.0132163473158e-10
  46    0.0054811277675286
  47    8.975686563456e-10
  48    1.5784090142341e-09
  49    4.4206591270341e-10
  50    -4.3787251524821e-10
  51     0.023208265107275
  52    3.7383390040232e-10
  53    -9.186228483652e-11
  54     0.061288210078308
  55    5.7611897121876e-10
 Sym= A
 Ene=               9
 Spin= Alpha
 Occup=    0.00000
   1    0.0081658373460332
   2     0.022991818754666
   3     -0.11672854877619
   4     -0.79583620564168
   5     -0.23956962463718
   6    1.5798470908643e-10
   7    -0.043795765603041
   8     -0.16325748522083
   9    -6.4169400048378e-10
  10      0.02284030800342
  11       1.4454348677466
  12    -1.6951067735002e-10
  13      0.10884254341376
  14    -0.0029273153004279
  15    -0.0042585241601762
  16    -2.3424063767998e-10
  17    -0.0016170328275325
  18    -9.5334525188946e-10
  19    -0.001430660605641
  20      -0.0796518771516
  21    2.0952053373824e-10
  22    -0.017527291237053
  23    7.835856113437e-10
  24     -0.01151294942043
  25     -0.11483542059188
  26     -0.11318723181951
  27       2.8736558355817
  28     0.044431110448554
  29    -2.0739822419895e-10
  30    -0.056769205934733
  31      0.22051326532462
  32    6.4358951401485e-10
  33    -0.016543361653281
  34     -0.95641241806384
  35    9.8697053117719e-11
  36     -0.10289632821729
  37    -0.010621119670631
  38     0.028655258821329
  39    -3.4060209325906e-10
  40    0.0093618702860869
  41    4.4825084815959e-10
  42      0.10494871513824
  43    0.0031339222534822
  44    6.443492180752e-10
  45     -0.02469017160213
  46    -3.2190769993543e-10
  47    -0.052903871359207
  48     -0.60627125631281
  49      -1.1830877485242
  50     0.014926593003936
  51    2.6329531505374e-10
  52    0.0080003217954067
  53      0.29410606467734
  54    -9.1276502560535e-11
  55      0.12667236548251
 Sym= A
 Ene=              10
 Spin= Alpha
 Occup=    0.00000
   1     0.010351397178924
   2      0.15910431091914
   3       0.4880772325388
   4      0.73719599157443
   5    -0.036260057946575
   6    -3.5529981160178e-11
   7     -0.44724925123461
   8    -0.095264886357914
   9    1.798790978319e-09
  10     -0.42070308824272
  11     -0.12026685930074
  12    6.5666961172303e-10
  13     -0.16795123594994
  14    -0.015955693656141
  15    5.949745857945e-05
  16    8.3487102380752e-10
  17    0.0062462009312495
  18    3.946941640924e-10
  19    -0.026963291829965
  20     -0.02344704749945
  21    -1.85429905606e-09
  22     0.011691384124481
  23    -6.4856755820611e-10
  24    -0.020969229795205
  25     -0.25378178625706
  26     -0.69832607315069
  27     -0.77056259506579
  28     -0.42618516256094
  29    5.4737857446746e-10
  30     -0.29221338687942
  31     -0.23134433295231
  32    -2.9669733297216e-09
  33     -0.35922912760627
  34     0.035576851344982
  35    -1.0157008266784e-10
  36     -0.35953707636881
  37     0.040045720898205
  38    0.0012981267391636
  39    3.6718853279702e-10
  40    -0.00045190478041646
  41    -3.0952947065381e-10
  42     0.059891100743279
  43     -0.02749960746991
  44    -1.4177343417918e-09
  45    -0.0059299024967603
  46    -1.3307844758961e-09
  47      0.15459042065718
  48      0.39791075621546
  49      0.23556461092816
  50     0.019088893077824
  51    2.2164534954792e-10
  52    -0.035743936377171
  53      0.20088585758474
  54    4.9017337181776e-10
  55     -0.09047102188532
 Sym= A
 Ene=              11
 Spin= Alpha
 Occup=    0.00000
   1     0.010594581242838
   2      0.15942206721468
   3      0.52435201840526
   4      0.75503212667766
   5     -0.16558050040519
   6    -9.0290086714659e-10
   7     -0.37501177427239
   8    -0.071511455764538
   9    -3.5244604187776e-10
  10     -0.39609936678977
  11     -0.22041760830668
  12    8.9002144513924e-12
  13      -0.2084696596785
  14    -0.0060067773270805
  15    -0.013046361433291
  16    -3.7639836024645e-09
  17    -0.0051297703658065
  18    4.0809480052019e-09
  19    -0.032380701120198
  20    0.0060134799249393
  21    3.1959648340596e-09
  22    0.0071660975903285
  23    -2.5103969280977e-09
  24    -0.016089806497647
  25    -0.081859087751402
  26     -0.30377016915577
  27      -1.0106355188666
  28       0.2340692067482
  29    3.2494511378844e-11
  30     -0.65716166148104
  31    -0.063599705242986
  32    1.1965058713419e-09
  33     -0.51607137652044
  34    0.0093747837583463
  35    -1.7279912470416e-09
  36     0.021205273402667
  37     0.034864228982958
  38    0.0062252811756358
  39    -8.6690071229401e-10
  40    -0.010865892819572
  41    2.1476918462249e-09
  42    -0.035905873785042
  43    -0.0019663183605614
  44    1.3731464684779e-09
  45    -0.0029657058268089
  46    -2.4019074952189e-10
  47     -0.16462657046507
  48     -0.47639035653765
  49      0.26437378086921
  50    -0.054903146014817
  51    -2.9613906898123e-09
  52    0.00063590283423478
  53      -0.2349839180669
  54    3.2410017328921e-09
  55    -0.052955461658946
 Sym= A
 Ene=              12
 Spin= Alpha
 Occup=    0.00000
   1     0.093497861760178
   2      0.33021604345174
   3      0.39631235429293
   4      -1.2015296508401
   5    0.0033175953886572
   6    -2.959944564606e-09
   7      0.14634928264806
   8    -0.094348349841912
   9    1.0584494211026e-08
  10      0.11112607692322
  11      0.58044999685978
  12    2.1496461254477e-09
  13     0.036108968519282
  14    -0.020684600143856
  15     0.015994412602877
  16    4.3119558175889e-10
  17    -0.053078530733003
  18    -5.8521508702684e-09
  19     -0.03677226825693
  20    -0.020675625647782
  21    -8.4299039075811e-09
  22    -0.054478613029917
  23    -5.8115007303502e-10
  24      0.21042950606647
  25      0.59636638508259
  26      0.48714077979486
  27       1.2137375982041
  28     -0.15051164564426
  29    -5.4632555939779e-10
  30    -0.046294473189489
  31      0.29311963361898
  32    -1.1273839886573e-08
  33     -0.22495513879484
  34     -0.15718899125382
  35    -1.6190098874587e-09
  36     -0.24871552482222
  37    -0.028788957971672
  38    -0.014632414721385
  39    -2.4496233073796e-10
  40    -0.042738640217228
  41    8.4200207042626e-10
  42    0.0045965690538435
  43     -0.10819115117304
  44    -5.5977323112188e-09
  45    -0.027526660658727
  46    -1.6208760387727e-09
  47    -0.041728618874836
  48      -1.0170268751753
  49     -0.51953673584556
  50    -0.0034563148017661
  51    1.1738075449041e-09
  52    0.0016214126271785
  53      0.72325842158403
  54    2.5021466753606e-09
  55     -0.18634075015999
 Sym= A
 Ene=              13
 Spin= Alpha
 Occup=    0.00000
   1       0.1618490421881
   2      0.49991375813331
   3       0.5737288321431
   4      -2.8562895467797
   5     0.042368428897524
   6    -7.881101712577e-10
   7    -0.046820015864137
   8    0.0040218726303766
   9    -3.9618337993673e-08
  10     -0.15228479656129
  11       -0.238683637594
  12    2.3190946559409e-08
  13      0.54386594911699
  14     -0.01893591491464
  15    0.0042855390616571
  16    -7.3685418953081e-09
  17     -0.14798515719728
  18    5.9604729084656e-09
  19      0.23351428147165
  20      0.11541134470677
  21    2.7479878670525e-08
  22    -0.077743268402734
  23    7.095376906298e-09
  24     -0.27726876482578
  25     -0.73419015732632
  26     -0.22556028149569
  27       1.8847057461467
  28    -0.070100923176175
  29    -8.35376560837e-09
  30    -0.047138706674891
  31     -0.37531755123932
  32    4.4314057563921e-08
  33     -0.15569305890792
  34      0.34988057868216
  35    -3.8072514929392e-08
  36      0.84401352009251
  37     -0.10662442840051
  38     0.009710239575781
  39    8.4044262622058e-09
  40     0.026584554234095
  41    -8.2137060498233e-09
  42     -0.47498449858284
  43     -0.22894536030368
  44    2.3936621344679e-08
  45     -0.10577383696589
  46    1.5238013722342e-08
  47      0.18251687182754
  48      0.84403394510514
  49     -0.28394166482582
  50     0.034446949112842
  51    -1.5640122290866e-08
  52     0.045867795967523
  53     -0.38753633619391
  54    2.4557233372593e-08
  55       0.4292604595603
 Sym= A
 Ene=              14
 Spin= Alpha
 Occup=    0.00000
   1     -0.56186205555109
   2      -1.0780880019929
   3       3.4226695350932
   4       3.2759238503235
   5     0.014669933130089
   6    2.3366475071011e-06
   7      0.16766998699013
   8      -1.0033049337338
   9    -8.401744315395e-06
  10      -2.8310192347685
  11    0.0020553083428515
  12    4.593535670342e-05
  13     -0.67800124883385
  14      0.28516650840317
  15      0.13921543377573
  16    4.1578967933393e-06
  17     0.034386064403762
  18    1.0603482901162e-05
  19       1.0031840200565
  20      0.56162561560967
  21    -1.3054029287034e-05
  22     0.093220207780265
  23    -8.3467499734086e-06
  24     -0.31101908251097
  25     -0.66265259973014
  26      -3.1785792276088
  27      -1.7003702348468
  28     -0.77654994211722
  29    1.1591826987122e-06
  30     -0.93664315500522
  31      0.20052304411383
  32    -9.5068316343064e-06
  33      -1.5882696718625
  34     -0.24167075328825
  35    -2.1090077028256e-05
  36     -0.54382847838832
  37      -0.2889680954222
  38     -0.13598541368425
  39    3.4871249495482e-06
  40     0.010710190843674
  41    -1.0893804368959e-06
  42     -0.38973099351956
  43    -0.060153529657358
  44    -9.4313043891422e-06
  45     0.065148565288978
  46    -1.5593770751655e-06
  47      0.22182544071152
  48     -0.98111639266788
  49     -0.13359318129485
  50     -0.18161071990492
  51    6.0767629932681e-06
  52      0.16145580216769
  53      0.23042769066128
  54    -9.1877231235262e-06
  55     -0.41371473628962
 Sym= A
 Ene=              15
 Spin= Alpha
 Occup=    0.00000
   1      0.33356893624829
   2      0.61717921964381
   3      -2.4776437421898
   4      -3.4513322149096
   5     -0.31034117301644
   6    5.4423044533185e-06
   7     -0.96217257923354
   8      0.87502879610274
   9    -1.3183655674469e-05
  10       2.8246392750496
  11      0.19956201187183
  12    -0.00015372627640369
  13      0.66935819562751
  14        0.223497062094
  15      0.14569842587752
  16    -3.4329628909693e-07
  17     -0.10548495777701
  18    1.5599291931197e-06
  19     -0.59515118619883
  20     -0.31904073531823
  21    1.4378052552012e-05
  22     -0.16053650579372
  23    1.3300811641326e-05
  24      0.14630783462957
  25      0.29002424925677
  26       2.9860780983766
  27        2.738071654582
  28    -0.089321618986119
  29    -5.954049970391e-06
  30      0.10342784000742
  31      0.65081820906053
  32    -1.2093545149395e-05
  33       1.7538426783778
  34      0.28293086769229
  35    0.00011563024604879
  36      0.66757683814373
  37     -0.44580515276101
  38     -0.31399672333063
  39    -8.6466721600201e-06
  40     0.066714851932227
  41    5.4044422816903e-06
  42      0.41399899536623
  43     0.079121361235616
  44    8.3437177968576e-05
  45      0.12665208719117
  46    -1.0315262448252e-05
  47     -0.16192419699458
  48      0.05296141894553
  49     -0.27803140117075
  50     0.080061347561759
  51    1.7652332690527e-05
  52     0.016148752692278
  53    -0.0012505910782502
  54    4.7577403074338e-05
  55      0.18200299744628
 Sym= A
 Ene=              16
 Spin= Alpha
 Occup=    0.00000
   1    0.0012653724361537
   2    0.0019550908987104
   3    -0.0072524949355635
   4     0.066171157698569
   5    -0.0056771372428554
   6     -0.23591435115844
   7    0.0014928920776782
   8    -0.0040549651898808
   9     -0.29540123874741
  10    0.0053531249480674
  11     0.011123678444707
  12       2.0170223653335
  13    -0.053351724893216
  14    -0.0012250521104999
  15    -0.00085026211545897
  16     0.013128360187546
  17    -0.00021539160184693
  18    0.0030585840992319
  19    0.0014622199482204
  20    -0.00091659893645157
  21    -0.039857889693627
  22    0.00010413781395351
  23    -0.0075801537999055
  24    -0.004422635240505
  25    -0.010380141378591
  26    -0.0048211181834911
  27     -0.15392797689978
  28    0.0030315123746644
  29      0.11924454412249
  30    0.0014829813085965
  31    -0.016089250635683
  32     0.064637110000895
  33    -0.0041237385508583
  34    -0.011153479113793
  35      -1.5906046581617
  36     0.020308402507134
  37    0.00061908268162494
  38      0.00106746917769
  39    -7.0449496438208e-05
  40    0.00067629073857077
  41    0.0038367672003359
  42    -0.0050756467266017
  43     0.001185269748826
  44    -0.062549090487897
  45    -0.00055020999617973
  46    -0.019223151463184
  47    -0.00094195642722163
  48     0.034029911679158
  49     0.062504160743551
  50    0.0012344933003722
  51    0.0011138967465777
  52    0.00057279183979762
  53    -0.025236770047772
  54    0.0049138045148438
  55     0.012464476987175
 Sym= A