[Molden Format]
made by pyscf v[2.13.1]
[Atoms] (AU)
O   1   8     0.21099695469856     0.00000000000000     2.15462460678861
N   2   7    -0.44776862100326     0.00000000000000    -0.03589262653049
H   3   1     1.18163474748449     0.00000000000000    -1.17386889907833
[GTO]
1 0
 s    8 1.00
                 11720  0.00070964594651845
                  1759  0.0054672722921914
                 400.8   0.027823118610189
                 113.7    0.10474773971146
                 37.03    0.28292084635691
                 13.27    0.44849523869833
                 5.025    0.27081688521277
                 1.013    0.01545029160744
 s    8 1.00
                 11720  -0.00031444341168873
                  1759  -0.0024821376810179
                 400.8  -0.012316355381583
                 113.7  -0.050538917343672
                 37.03   -0.13938490331632
                 13.27   -0.32507749481778
                 5.025   -0.22984830758785
                 1.013     1.0953793467883
 s    1 1.00
                0.3023                   1
 s    1 1.00
               0.07896                   1
 p    3 1.00
                  17.7   0.062679166281506
                 3.854    0.33353656587936
                 1.046    0.74123964163973
 p    1 1.00
                0.2753                   1
 p    1 1.00
               0.06856                   1
 d    1 1.00
                 1.185                   1
 d    1 1.00
                 0.332                   1

2 0
 s    8 1.00
                  9046  0.00069961741342552
                  1357  0.0053860546299287
                 309.3   0.027391021189057
                 87.73    0.10315059198201
                 28.56    0.27857066331743
                 10.21    0.44829484945412
                 3.838    0.27808592839527
                0.7466   0.015431561233271
 s    8 1.00
                  9046  -0.00030499009595337
                  1357  -0.0024080263785077
                 309.3   -0.01194444872518
                 87.73  -0.048925992909017
                 28.56   -0.13447272472496
                 10.21   -0.31511257770011
                 3.838   -0.24285783254964
                0.7466     1.0943822068542
 s    1 1.00
                0.2248                   1
 s    1 1.00
               0.06124                   1
 p    3 1.00
                 13.55   0.058905676772132
                 2.917    0.32046110671427
                0.7973    0.75304206179207
 p    1 1.00
                0.2185                   1
 p    1 1.00
               0.05611                   1
 d    1 1.00
                 0.817                   1
 d    1 1.00
                  0.23                   1

3 0
 s    3 1.00
                 13.01   0.033498726389998
                 1.962    0.23480080117413
                0.4446     0.8136829578829
 s    1 1.00
                 0.122                   1
 s    1 1.00
               0.02974                   1
 p    1 1.00
                 0.727                   1
 p    1 1.00
                 0.141                   1

[5d]
[7f]
[9g]

[MO]
 Sym= A
 Ene=               0
 Spin= Alpha
 Occup=    1.00000
   1    -0.0026804625025627
   2    -0.013283469829752
   3    -0.010145276956639
   4    -0.011290676349222
   5       0.5377319862239
   6    3.740098348957e-17
   7    -0.096333437418596
   8      0.37376637964812
   9    -1.5288932869078e-17
  10    -0.074507852466281
  11      0.12616546141233
  12    6.1448416687571e-16
  13    -0.023160048702544
  14    -0.00044524564859699
  15    -0.0032257853622174
  16    5.8695739106443e-17
  17    -0.00098929989075199
  18    -1.7817372556997e-17
  19    0.0011518670148411
  20    -0.0021467179288262
  21    -5.2229390167362e-17
  22    -0.0017290144382235
  23    2.8814051630068e-17
  24    -0.00098529517926976
  25      0.10648346942571
  26       0.2485288247965
  27      0.16099793980618
  28     -0.35111717028311
  29    -6.4658949064675e-17
  30     -0.03520236581006
  31     -0.21558572006109
  32    1.1591234711883e-16
  33    -0.028592611269533
  34    -0.074358418239492
  35    -4.9410534187835e-16
  36    -0.0036891938551594
  37     -0.01085374433079
  38     0.024444191868207
  39    1.8155005961611e-17
  40      -0.0099641328691
  41    -2.7994465115493e-18
  42    -0.00055522870581555
  43    0.0019595495354377
  44    -5.4076136559268e-17
  45    0.0013753788297355
  46    -5.3297655474803e-17
  47     -0.28413331689996
  48      -0.1885513852361
  49    -0.037745212897504
  50    0.0040349538429082
  51    1.0317958224511e-16
  52    -0.0094908471397213
  53    -0.018258896624664
  54    -1.9487282927174e-16
  55     0.019421968139509
 Sym= A
 Ene=               1
 Spin= Alpha
 Occup=    1.00000
   1    -0.0039855535447221
   2     0.075281884024844
   3     0.075315635411149
   4    -0.0068046019548271
   5     -0.38298619043391
   6    -3.9833483586288e-16
   7     0.025079525940986
   8     -0.21908298849098
   9    -9.32048182234e-16
  10     0.026055189206061
  11    -0.014237682684858
  12    1.1879233629974e-15
  13    0.0070859930773745
  14    -0.0029445399901193
  15     0.020821334008105
  16    -4.7946960492316e-18
  17    0.0047962974615866
  18    -3.7081975948497e-17
  19    -0.0062395563022331
  20     0.020424070007461
  21    2.6645281310676e-16
  22    0.0014606716955211
  23    2.0439510464886e-16
  24    -0.0050219569182756
  25      0.18861386145873
  26      0.22384251289528
  27     0.054975874764747
  28     -0.38559079545747
  29    -3.9497989685003e-16
  30      0.12530504258979
  31     -0.16875606829073
  32    1.1825187485067e-16
  33      -0.0153521751153
  34    -0.014248799988728
  35    -1.1861114761641e-15
  36    -0.0026264556787758
  37     0.024173403165185
  38    -0.010371489881604
  39    -6.7490877796419e-17
  40    -0.020611148820016
  41    -2.3684132258989e-17
  42    -0.0093699660120075
  43    -0.009371674881549
  44    4.2974638747479e-16
  45    0.00038776857594994
  46    5.1035374218618e-17
  47     -0.18854836882703
  48    -0.080485356968833
  49     -0.00744559915013
  50     0.005063030115609
  51    -9.5019747488644e-18
  52    -0.010138190068481
  53    0.0024689326259552
  54    1.1807345222737e-16
  55    -0.015203012769986
 Sym= A
 Ene=               2
 Spin= Alpha
 Occup=    1.00000
   1    4.4560769122069e-16
   2    6.0215453446625e-16
   3    -9.4067001899072e-15
   4    -2.8871200057785e-14
   5    -6.745573007587e-16
   6      0.48293643377382
   7    -1.5310580813898e-15
   8    8.3321726780679e-16
   9      0.29325120273613
  10    6.4917101215828e-15
  11    1.6769413044835e-15
  12     0.032802356604109
  13    5.9729504317203e-15
  14    6.0939293580392e-18
  15    3.4004401188476e-17
  16    -0.023547370697403
  17    3.591321226883e-17
  18    -0.0062388229740347
  19    -1.3260223118423e-15
  20    -4.1953658543331e-16
  21    -0.026807233320924
  22    -2.7401624690543e-17
  23    -0.0057340089517254
  24    7.3084080541198e-17
  25    4.8714056375378e-17
  26    8.4505451168683e-15
  27    2.8675830269489e-14
  28    -3.2510463716829e-16
  29      0.40143086921762
  30    1.2945555445222e-15
  31    2.8993303396004e-15
  32      0.20915817645098
  33    1.0243895125769e-14
  34    4.3222825498842e-15
  35     0.016157129053395
  36    7.0055454408569e-15
  37    3.3310710912835e-16
  38    1.5876216285362e-16
  39      0.03072491661808
  40    -9.6106549863883e-17
  41     0.018563257983275
  42    2.064830035803e-15
  43    2.3630833617819e-15
  44    -0.0018467998350396
  45    5.6711646186132e-16
  46     0.011167004887345
  47    6.0180911770142e-16
  48    -2.1220268005794e-16
  49    -3.5778478244589e-15
  50    -1.4858832819062e-16
  51     0.011418005103861
  52    -1.3820585824399e-16
  53    -1.4965755992122e-15
  54    0.0029799986058222
  55    9.4951501352943e-17
 Sym= A
 Ene=               3
 Spin= Alpha
 Occup=    1.00000
   1     0.005579872105717
   2    -0.0060294611854874
   3    0.0016379485793697
   4    -0.037844131743796
   5    -0.036871496738809
   6    -1.0821663443876e-15
   7     -0.19196068589015
   8    -0.026987210541532
   9    1.3781545815786e-16
  10     -0.10679046881683
  11    0.0038883962332283
  12    -2.7238092136357e-16
  13    -0.0081045796613537
  14    0.0010583157300845
  15     0.002767032033446
  16    1.0986006669708e-16
  17    0.0010931916158182
  18    7.0156271507751e-17
  19    -0.0087689536003018
  20    0.0047131029601385
  21    -2.8188465110049e-16
  22    -0.0023021613022001
  23    -2.227711378823e-16
  24    -0.012918534079959
  25     -0.33239313819321
  26      -0.3251618686334
  27    -0.012778573640685
  28     -0.02595237589691
  29    -5.6373368278767e-16
  30      0.35541599121886
  31     0.052084168586398
  32    -8.6718442313509e-16
  33     0.096226725442621
  34    0.0064351153284998
  35    7.4461154130275e-16
  36      0.01026613103058
  37     0.014127603246962
  38     0.022282440164011
  39    -3.3170359935194e-17
  40    -0.0017155427257737
  41    -5.6488737222304e-17
  42    -0.019300859499718
  43    -0.016199182053257
  44    -5.5055636325992e-16
  45     0.023133660621705
  46    -2.9214777524136e-17
  47     -0.31645315875441
  48    -0.073067740834169
  49    -0.0020496655147765
  50     0.031730474386165
  51    -2.906731008133e-17
  52    -0.014257258890185
  53     0.006409356247532
  54    -3.7968942820175e-16
  55    -0.0053976262877099
 Sym= A
 Ene=               4
 Spin= Alpha
 Occup=    1.00000
   1    -0.0084742134464064
   2      0.46091463632116
   3      0.61903119398671
   4      0.15515939846489
   5     0.090736833786056
   6    7.3219051027045e-16
   7      0.21518976650119
   8     0.038879519689507
   9    5.7258290531938e-16
  10     0.069236472309182
  11    -0.0022969755026154
  12    -2.0553643485996e-16
  13    -0.005307010057745
  14    -0.0053184082955847
  15    -0.0033629396345191
  16    -2.828896361594e-17
  17    -0.0040985542593878
  18    -9.2516828733272e-18
  19    0.0029783809822316
  20    3.2631639758782e-05
  21    -1.4602141810399e-16
  22    -0.0030762422692898
  23    3.5771874297417e-17
  24    -0.021705848065335
  25     -0.11519633506219
  26     -0.21990336759253
  27    -0.084435458539377
  28     0.026102065676685
  29    5.6473815798732e-16
  30    0.0075847189529738
  31    -0.0009103429218883
  32    7.2842522935209e-18
  33    -0.077683911534695
  34    -0.0042583778692014
  35    1.0022068008255e-16
  36    -0.025083626227147
  37    0.0079266477394012
  38    0.0080553465179576
  39    1.0289898048434e-17
  40    0.0016386683649415
  41    1.8873600347485e-17
  42    -0.016476948498536
  43    -0.015787601177756
  44    4.6955728051086e-17
  45    0.0018683459127465
  46    -1.2357098454431e-16
  47    -0.025615156640508
  48    0.0052444778724702
  49    0.0043392389774202
  50    0.0039653787842386
  51    5.5011481844873e-17
  52    -0.001203174699757
  53    0.0029925666014908
  54    1.2352969238152e-16
  55    0.00046094766045476
 Sym= A
 Ene=               5
 Spin= Alpha
 Occup=    1.00000
   1    -0.0013904198865361
   2      0.13913741266895
   3     0.040816036020545
   4     -0.10871099203081
   5     0.018980514047018
   6    -8.1427259458699e-16
   7     -0.44861693202852
   8     0.031013056828126
   9    -9.4772949554771e-16
  10     -0.20140705154155
  11     0.012625078567772
  12    -3.1864987527644e-16
  13    0.0083343902525846
  14     0.024984906922081
  15    0.0058357246698939
  16    3.9618974911381e-17
  17    -0.001210296037443
  18    -4.8624607689552e-20
  19     0.011124007494304
  20    -0.0028599002538689
  21    1.3989817629438e-16
  22    0.00075094442031822
  23    8.9538048730316e-17
  24     0.069333859233374
  25      0.25274591249433
  26      0.10784511329462
  27     0.051482454204887
  28      0.21876421655675
  29    -4.9886662255748e-16
  30      0.29879263434417
  31     0.077496891528319
  32    1.3790223073571e-17
  33     0.088020975789033
  34     0.015732974580822
  35    5.2091836438052e-16
  36     0.016704662559251
  37     0.019014121356226
  38     0.028554764806941
  39    -4.9860501081149e-18
  40    0.0077123442062907
  41    -2.3799784838981e-17
  42    -0.0035383568270156
  43    0.0076047287515157
  44    3.064404096914e-16
  45    -0.0029649138991627
  46    9.8589064362183e-17
  47     0.063134419803577
  48    -0.037537802930562
  49    -0.0043764870601007
  50    -0.0079594311946186
  51    -1.3639586137913e-18
  52     0.014411061036448
  53     0.014587255193966
  54    -1.1465039796316e-16
  55    -0.0058450796807555
 Sym= A
 Ene=               6
 Spin= Alpha
 Occup=    1.00000
   1    -0.033140719829451
   2    -0.0024988313810068
   3    0.0094206071348304
   4     0.011064369965622
   5    -0.0023816737026352
   6    2.1742353385788e-16
   7     0.031035831825284
   8    -0.0028773779214864
   9    -2.5401519079985e-15
  10     0.013486327949101
  11    -0.0010557358193889
  12    -1.9662423059705e-15
  13    -0.0012061218744996
  14    -0.0025795290390426
  15    -0.00071530891624742
  16    -7.8940816544211e-16
  17    1.8213704212873e-05
  18    -2.5563371653021e-16
  19    -0.0020143069924108
  20    -0.00049250376275819
  21    2.9304934021401e-15
  22    -0.00038584447613187
  23    6.9889221083276e-16
  24        1.002458610195
  25    -0.0099436307257604
  26    -0.035191256496367
  27    -0.012018853783001
  28    -0.014626548389303
  29    1.917343435857e-16
  30    -0.012225591478396
  31    -0.010650191299581
  32    3.6701769086993e-15
  33    -0.0059651193264994
  34    -0.0029539212486701
  35    1.5415232951843e-15
  36    -0.00086018276744069
  37    9.2227891015321e-05
  38    -0.0015466645897857
  39    1.6794784130971e-16
  40    -0.00029322472445959
  41    4.9379966926619e-17
  42    -0.0021306007734756
  43    -0.0015083210657483
  44    2.3896355279352e-15
  45    1.5626840972793e-05
  46    1.1197694669584e-15
  47    -0.010690115965214
  48     0.014386935221208
  49    0.0017792645524384
  50    0.0021905842915362
  51    -1.1785219044715e-16
  52    -0.0018114455309117
  53    -0.0057212295309883
  54    -4.068307026419e-16
  55    0.0035609570086004
 Sym= A
 Ene=               7
 Spin= Alpha
 Occup=    1.00000
   1        1.005491800836
   2     0.013754217772558
   3    -0.037260709671702
   4    -0.010057819113738
   5    -0.00067244344446559
   6    1.6190107296163e-16
   7    -0.00015278289789333
   8    0.0043420853485392
   9    -1.0796273133498e-16
  10     0.018768880731686
  11    0.0007048754930255
  12    -1.4006390366932e-16
  13    0.0016582588337436
  14    0.00022599101872971
  15    0.00015669692667112
  16    -1.5392785780374e-17
  17    -6.0151324091223e-06
  18    -3.2002153492952e-17
  19    -0.0040056243349049
  20    -0.0018701751344188
  21    1.6923169334341e-16
  22    -0.00016634413611338
  23    2.2704841351612e-17
  24     0.032757751926957
  25    -0.0020603384700003
  26     0.025263860507478
  27    0.0068735804412528
  28    -0.00033880110007329
  29    1.1939557775828e-16
  30     0.000299968191438
  31    0.0055771301282509
  32    2.6621678606774e-16
  33     0.020418642708479
  34    -2.5157884459211e-05
  35    5.3562693081852e-17
  36    0.0021948124420575
  37    -0.00021207155486565
  38    -0.00045975956820512
  39    6.1711831048973e-18
  40    0.00010409506585859
  41    8.3488311297008e-18
  42    0.0051883120918735
  43    0.0039682476141906
  44    1.5197162232339e-16
  45    0.00073717115262497
  46    6.5088976966904e-17
  47    -0.0011198737135712
  48    0.0038570272641204
  49    -0.00034713793692626
  50    0.00039040960145997
  51    -1.6802250881421e-18
  52    -0.00075963697847569
  53    -0.0016605038172378
  54    2.0884636027988e-18
  55    0.00016711301545852
 Sym= A
 Ene=               8
 Spin= Alpha
 Occup=    0.00000
   1    3.4880904884101e-16
   2    6.0179265802767e-16
   3    -5.4234807622716e-15
   4    -2.2841843047396e-14
   5    -6.7178710303721e-17
   6     -0.48807877908346
   7    -4.1205329874414e-17
   8    1.6171147830835e-15
   9     -0.36548121120933
  10    4.8778229724225e-15
  11    -9.3472594597563e-17
  12     -0.17106949614469
  13    6.1427891339648e-15
  14    4.9325723323736e-17
  15    2.9005396825907e-17
  16    -0.0064756926513174
  17    3.1287982128609e-17
  18    -0.0020457057539851
  19    -1.1827901598569e-15
  20    -3.4795806004378e-16
  21    -0.0023202487311755
  22    -1.315307299301e-16
  23    -0.007002929565679
  24    -4.8562258034588e-16
  25    -6.9509739926005e-16
  26    1.1690877714593e-14
  27    2.8934279635609e-14
  28    7.2601963245362e-18
  29       0.5268307747793
  30    -7.6024565259358e-17
  31    3.8636850679307e-15
  32       0.4065561861052
  33    4.5894170764487e-15
  34    5.4116166984221e-15
  35      0.17387945090548
  36    3.2995256336249e-15
  37    1.3053775545506e-16
  38    2.9138813677604e-17
  39    -0.015826801068618
  40    9.5227460178604e-17
  41     0.016231141383587
  42    1.7230521247074e-15
  43    4.2557766281831e-16
  44    -0.013384408510538
  45    5.0449296489857e-16
  46     0.017426233521713
  47    -6.3899042360344e-16
  48    -8.4528715337638e-15
  49    -5.2639796218784e-15
  50    2.6303764473774e-16
  51      0.02074959601335
  52    -3.1849112552037e-16
  53    1.9571539445631e-15
  54     0.040421334615482
  55    -3.6283933024532e-16
 Sym= A
 Ene=               9
 Spin= Alpha
 Occup=    0.00000
   1    -2.3067938748298e-16
   2    -5.2523129188008e-16
   3    -8.4836946212149e-17
   4    -3.0619825141818e-15
   5    3.037132350632e-16
   6     -0.43602036583586
   7    3.4983043497537e-16
   8    -2.1156767088371e-16
   9      0.23469079170773
  10    7.8798435459348e-16
  11    -2.5978925732833e-16
  12      0.28425839564594
  13    1.7109026823703e-16
  14    -1.8911312029103e-16
  15    -1.8291596465969e-16
  16    -0.037266406074899
  17    -1.5085310451874e-16
  18     -0.08138544063955
  19    -4.2139307781767e-17
  20    -4.6948040518184e-16
  21     -0.23721940097056
  22    1.3803034954038e-16
  23    -0.085289332449797
  24    1.7828603574489e-16
  25    3.2546572226024e-16
  26    -2.521012688327e-15
  27    -3.1477103850972e-15
  28    -1.0618094546851e-15
  29     -0.19226119186754
  30    7.0546219117322e-16
  31    -4.1686155673456e-17
  32     0.074899376541492
  33    2.517562084142e-15
  34    1.1251759574111e-17
  35     -0.30409894705614
  36    1.6897768391391e-15
  37    4.0407876005387e-16
  38    1.5845300698175e-16
  39      0.22382089012724
  40    1.1863115320606e-16
  41       -0.393962441485
  42    -1.4717639368097e-16
  43    2.7048976786204e-16
  44      0.35778314859382
  45    1.2830799982682e-15
  46     -0.35839315246071
  47    -8.2235714110708e-16
  48    7.5306692470347e-15
  49    1.9666982601834e-15
  50    -5.7948819389624e-16
  51     0.079500333352276
  52    4.839030683819e-16
  53    -2.9026980867322e-15
  54    -0.0073162913222089
  55    -5.6279455955533e-16
 Sym= A
 Ene=              10
 Spin= Alpha
 Occup=    0.00000
   1     0.023698281894104
   2      0.15781102110055
   3      0.43866780170155
   4     -0.33166641826173
   5    0.0077529793739212
   6    6.6870030051954e-16
   7     -0.28444549653321
   8    -0.032956802750681
   9    1.361517252855e-15
  10     -0.16313969369602
  11     -0.29921509737712
  12    4.290278365873e-17
  13      0.14666227517578
  14     0.014278761146512
  15    0.00028340902328109
  16    -9.8956440214982e-17
  17     0.034302865262489
  18    9.071281413324e-17
  19     0.039486444769238
  20      -0.1136802756265
  21    -7.5637421791814e-16
  22     0.043787496143235
  23    -1.4300639109195e-15
  24    -0.053393528702121
  25      -0.2571387093369
  26      -0.2342240498253
  27      0.73722200849797
  28     -0.16100704435634
  29    -1.046270737446e-15
  30    -0.018354128025696
  31      0.10972758428529
  32    3.9133902680764e-17
  33     -0.56562210913988
  34      0.13569562525423
  35    -5.9743465513193e-16
  36      -0.1143729336032
  37      0.21438121688693
  38    -0.016068266290191
  39    -1.4918439466596e-15
  40      0.34707574503174
  41    4.1939557772364e-16
  42     -0.06277200291471
  43    -0.098617581934374
  44    -2.0976846462077e-15
  45      0.45336779798841
  46    -6.5405080003665e-16
  47    -0.092294982439712
  48     -0.35867238919072
  49    -0.093976996047141
  50    0.00076218527886592
  51    -5.720294836668e-16
  52    -0.076042867046945
  53     -0.10996705264078
  54    4.3113962108497e-16
  55    -0.086906580721633
 Sym= A
 Ene=              11
 Spin= Alpha
 Occup=    0.00000
   1    -2.1853302721755e-15
   2    -4.7775937726739e-15
   3    2.5262816955689e-14
   4    1.0072483790763e-14
   5    7.9116394115229e-16
   6     -0.12852264439503
   7    1.1592109909445e-15
   8    -3.69003298489e-15
   9     -0.35954253892242
  10    -1.3260865530298e-14
  11    4.6770800391747e-16
  12     -0.46119893939372
  13    9.1225264238237e-16
  14    1.4230245339433e-17
  15    4.2648678955484e-16
  16    -0.042334300965023
  17     2.96099105648e-16
  18     0.025417406585243
  19    2.7557221866453e-15
  20    -7.2079857527608e-17
  21    -0.0094866388705421
  22    -8.1855342306314e-19
  23      0.14975636228715
  24    2.2859902630637e-15
  25    4.3232764038522e-15
  26    -3.1970983001525e-14
  27    -5.0570244898071e-15
  28    1.1978533372299e-15
  29     -0.20977121345332
  30    2.6927014545785e-15
  31    -7.9498950133006e-15
  32     0.094502309554348
  33    -1.9829096655736e-14
  34    -3.838819172445e-15
  35      0.62114754479808
  36    -1.3452071401351e-15
  37    -1.2615094656111e-15
  38    1.7203088776379e-16
  39      0.60481839182312
  40    1.546764986344e-15
  41      0.31603771739663
  42    -4.1982569833273e-15
  43    -6.0705880573204e-15
  44      0.39972677153759
  45    1.5761515436167e-16
  46      0.22884202825119
  47    -2.6632881421655e-15
  48    8.3356543177357e-15
  49    -6.9298017633345e-16
  50    -2.5711424004387e-16
  51      0.16727959541591
  52    1.0472568915074e-15
  53    -2.1574967382102e-15
  54      0.16367976427503
  55    5.9450425115789e-15
 Sym= A
 Ene=              12
 Spin= Alpha
 Occup=    0.00000
   1    -2.6139442771457e-16
   2    -7.0087721483071e-16
   3    -1.0552734377242e-15
   4    2.6930920314965e-14
   5    8.7752377815243e-18
   6     0.073082931744799
   7    -1.1350920349234e-15
   8    -2.9279665501242e-15
   9     0.069916759598373
  10    -3.7456838974783e-15
  11    1.2479256009938e-15
  12     -0.23879203720956
  13    -9.8608652251433e-15
  14    -6.0555607805765e-16
  15    -4.2010814510028e-16
  16      0.13477354392807
  17    1.9623576086383e-16
  18     -0.61324643253615
  19    2.3705692007014e-15
  20    1.8712680236745e-15
  21     0.071650963149904
  22    1.1846296600374e-15
  23     -0.48726990522833
  24    1.3050635107086e-15
  25    2.0806053001901e-15
  26    -2.3687257236812e-14
  27    -3.517269289093e-14
  28    -6.3106132140456e-16
  29     -0.16247698766891
  30    -3.0557519368614e-15
  31    -6.344082727842e-15
  32    -0.074614771165723
  33    4.8722437443433e-15
  34    -7.3402659263519e-15
  35      0.42641477860856
  36    1.3101401317361e-15
  37    -5.7933430741684e-17
  38    4.5413338070061e-16
  39    -0.0073019769575537
  40    -1.1201701734246e-15
  41      0.15942697606625
  42    -1.1128797054598e-15
  43    3.0046663392079e-15
  44     -0.20413491888593
  45    -1.3478056108483e-15
  46     0.095547272359091
  47    5.8401458426455e-15
  48    1.9198025136602e-14
  49    6.9441125477273e-15
  50    -1.5555351116884e-15
  51    -0.0013191494044938
  52    9.8636254822664e-16
  53    -7.7951051288076e-15
  54     0.040978336371947
  55    1.1265095313053e-15
 Sym= A
 Ene=              13
 Spin= Alpha
 Occup=    0.00000
   1    9.9184086476498e-16
   2    2.2247976730267e-15
   3    -1.0786878818474e-14
   4    -5.024116080493e-14
   5    -1.447511515464e-15
   6     -0.23216687046593
   7    -7.6513198262062e-16
   8    4.0794447781863e-15
   9      0.35114604924926
  10    7.6844535316966e-15
  11    3.2753080216437e-15
  12      0.12477169748359
  13    1.4836837693367e-14
  14    -6.5989606689307e-16
  15    -2.2096370645292e-16
  16    -0.030796179063563
  17    -6.4685734869717e-17
  18       0.1521763797353
  19    -2.4217790259198e-15
  20    -1.8130838849876e-15
  21     -0.22814104342767
  22    3.9584184069884e-17
  23     0.017163879593619
  24    -9.2085201630294e-16
  25    -1.8172457645926e-15
  26    1.9231283152046e-14
  27    6.1076870773546e-14
  28    -9.7502467897262e-17
  29     -0.72984006451079
  30    -1.7847104105055e-15
  31    3.6111253733885e-15
  32      0.38470676259897
  33    1.0355068439499e-14
  34    1.1147648182255e-14
  35      0.19558599233779
  36    7.6295716977322e-15
  37    -9.9711806160923e-17
  38    5.6536031361914e-16
  39     -0.49212119086997
  40    5.4125453417465e-16
  41    0.0079128033000464
  42    4.4788150428115e-15
  43    -8.4673754917988e-17
  44    -0.067294762380834
  45    -1.8582046119875e-15
  46    -0.078950098229693
  47    -1.572105456534e-15
  48    -9.1919490411114e-15
  49    -1.2669380376601e-14
  50    8.4831294692489e-16
  51    -0.0055518399267219
  52    -1.6534135709007e-16
  53    3.0280549056858e-15
  54     0.031746882163196
  55    1.7639080575185e-15
 Sym= A
 Ene=              14
 Spin= Alpha
 Occup=    0.00000
   1    -8.6114402843199e-15
   2    -1.2707588615125e-14
   3    1.3152695072358e-13
   4    1.5289144222825e-13
   5    7.555034246568e-16
   6     -0.36481002490739
   7    -1.0020009913498e-15
   8    -1.9955252315606e-14
   9      0.67128205245724
  10    -9.1079034370658e-14
  11    -1.6789738767806e-14
  12      0.19768757243782
  13    -3.5706202951893e-14
  14    4.2209506912014e-15
  15    1.3592302984433e-15
  16     0.077034005638206
  17    2.0887469719549e-15
  18      0.01071175207389
  19    2.2403580464134e-14
  20    4.3978230875563e-15
  21     -0.20030717855145
  22    3.4716076696837e-15
  23    -0.026595010191652
  24    5.1487900251851e-15
  25    5.7853235603189e-15
  26    -1.6638887918703e-13
  27    -1.4964039088948e-13
  28    -1.834457754588e-15
  29      0.65340103827112
  30    -7.0664933585597e-15
  31    -5.0012745064931e-14
  32      -1.7185978412142
  33    -9.8393328705692e-14
  34    -1.0680571283562e-14
  35      0.45320334044013
  36    -2.4671633812319e-14
  37    -1.0528956725411e-14
  38    -2.8835129459829e-15
  39      -0.3282723119755
  40    -3.035910164437e-15
  41      0.14558880765615
  42    -2.4192798568829e-14
  43    -1.6461748897056e-14
  44       0.2344222789105
  45    -1.1095110677444e-14
  46     -0.35434524030873
  47    8.7653667680929e-15
  48    2.1129444645286e-14
  49    2.4527107140932e-14
  50    -4.8328904892757e-15
  51    0.00079691233207772
  52    3.3163429422729e-15
  53    -6.2145352716535e-15
  54      0.61569025610517
  55    6.8766513718746e-15
 Sym= A
 Ene=              15
 Spin= Alpha
 Occup=    0.00000
   1    5.3346117489805e-14
   2    1.0916555528133e-13
   3    -4.1906384866556e-13
   4    -3.3853268987158e-13
   5    1.4634217346334e-14
   6     -0.70224093857298
   7    9.0915174439735e-14
   8    2.0206741235466e-13
   9       1.4922242473716
  10    8.9269417092237e-14
  11    -9.1758728443438e-14
  12      -0.1282754269393
  13    7.8217663521038e-14
  14    -1.8581114086382e-14
  15    9.618186288206e-14
  16    0.0089028338147256
  17    1.8609274020965e-14
  18      0.25999005181565
  19    -1.7962198934457e-14
  20    -1.6422327449561e-13
  21     -0.16360267736668
  22    -8.1874721268623e-14
  23     -0.61496699360217
  24    -6.3822642569087e-15
  25    -3.7815852674642e-16
  26    3.6863447303064e-13
  27    1.5392757629395e-13
  28    4.5367143466805e-14
  29    -0.062072302795431
  30    3.6021185174305e-14
  31    -1.1502254522661e-13
  32     -0.20472681557577
  33    2.9583140953798e-13
  34    1.1469733676045e-13
  35     -0.39406792622691
  36    5.707490319169e-14
  37    1.6668085297535e-14
  38    -1.3879014024455e-14
  39     0.026067285327306
  40    1.8014914517994e-14
  41       0.2548044853489
  42    1.4098250186968e-13
  43    -2.4939362837563e-14
  44     -0.77879090688198
  45    -1.3216112668716e-14
  46      0.35938861319673
  47    1.8089476126458e-14
  48    -1.7210483905574e-14
  49    1.1279132405213e-13
  50    2.8693384680516e-15
  51    -0.096173758357142
  52    -1.1794349030446e-14
  53    8.6762322022986e-16
  54     -0.35434286778487
  55    3.0093053254995e-14
 Sym= A
 Ene=              16
 Spin= Alpha
 Occup=    0.00000
   1    0.00079732174578177
   2     -0.00340172558052
   3     0.017521907104106
   4     -0.26782091199488
   5    -0.094872605082041
   6      0.13940812754781
   7    -0.010864970427299
   8     -0.11869810141964
   9     -0.86657188030285
  10    -0.0081782331145759
  11      0.89816163211392
  12       1.7892882145482
  13    -0.039192051127402
  14    -0.0017091053202487
  15     0.007619092744989
  16     0.024623296785564
  17     0.005475447696491
  18     -0.16482195502756
  19    0.0086899334578944
  20    -0.033199133920068
  21      0.12024656265908
  22    -0.00027386180888808
  23     0.082845641554167
  24    -0.012275127627297
  25    -0.054756287911245
  26     0.036528360229412
  27       1.0784241701098
  28    -0.016923184405253
  29    -0.028949460652928
  30     0.026952293467533
  31     0.042342301373315
  32       0.4497040106225
  33    -0.078941671783157
  34     -0.39398920842502
  35       -1.455596994482
  36      0.07429389385151
  37     0.019968875454093
  38    -0.0027811050024402
  39      0.15496512416983
  40     0.034599154777142
  41      0.13908366426938
  42    0.0073713139214309
  43    -0.064722277472797
  44     0.015296735087701
  45     0.042794293963793
  46      0.14757211358219
  47    0.0041421738464473
  48     -0.39049100129938
  49     -0.41618933568939
  50     0.011047414509889