[Molden Format]
made by pyscf v[2.13.1]
[Atoms] (AU)
O   1   8     0.21099695469856     0.00000000000000     2.15462460678861
N   2   7    -0.44776862100326     0.00000000000000    -0.03589262653049
H   3   1     1.18163474748449     0.00000000000000    -1.17386889907833
[GTO]
1 0
 s    8 1.00
                 11720  0.00070964594651845
                  1759  0.0054672722921914
                 400.8   0.027823118610189
                 113.7    0.10474773971146
                 37.03    0.28292084635691
                 13.27    0.44849523869833
                 5.025    0.27081688521277
                 1.013    0.01545029160744
 s    8 1.00
                 11720  -0.00031444341168873
                  1759  -0.0024821376810179
                 400.8  -0.012316355381583
                 113.7  -0.050538917343672
                 37.03   -0.13938490331632
                 13.27   -0.32507749481778
                 5.025   -0.22984830758785
                 1.013     1.0953793467883
 s    1 1.00
                0.3023                   1
 s    1 1.00
               0.07896                   1
 p    3 1.00
                  17.7   0.062679166281506
                 3.854    0.33353656587936
                 1.046    0.74123964163973
 p    1 1.00
                0.2753                   1
 p    1 1.00
               0.06856                   1
 d    1 1.00
                 1.185                   1
 d    1 1.00
                 0.332                   1

2 0
 s    8 1.00
                  9046  0.00069961741342552
                  1357  0.0053860546299287
                 309.3   0.027391021189057
                 87.73    0.10315059198201
                 28.56    0.27857066331743
                 10.21    0.44829484945412
                 3.838    0.27808592839527
                0.7466   0.015431561233271
 s    8 1.00
                  9046  -0.00030499009595337
                  1357  -0.0024080263785077
                 309.3   -0.01194444872518
                 87.73  -0.048925992909017
                 28.56   -0.13447272472496
                 10.21   -0.31511257770011
                 3.838   -0.24285783254964
                0.7466     1.0943822068542
 s    1 1.00
                0.2248                   1
 s    1 1.00
               0.06124                   1
 p    3 1.00
                 13.55   0.058905676772132
                 2.917    0.32046110671427
                0.7973    0.75304206179207
 p    1 1.00
                0.2185                   1
 p    1 1.00
               0.05611                   1
 d    1 1.00
                 0.817                   1
 d    1 1.00
                  0.23                   1

3 0
 s    3 1.00
                 13.01   0.033498726389998
                 1.962    0.23480080117413
                0.4446     0.8136829578829
 s    1 1.00
                 0.122                   1
 s    1 1.00
               0.02974                   1
 p    1 1.00
                 0.727                   1
 p    1 1.00
                 0.141                   1

[5d]
[7f]
[9g]

[MO]
 Sym= A
 Ene=               0
 Spin= Alpha
 Occup=    1.00000
   1    -0.0029077133196491
   2    -0.017821969679607
   3    -0.016932342290552
   4    -0.012129433730959
   5      0.52690614111263
   6    -5.9121305286544e-13
   7    -0.091192239000834
   8      0.36784029941957
   9    -3.5908299249909e-13
  10    -0.070706094058606
  11      0.12553353809672
  12    -3.9502264378963e-14
  13     -0.02262242500747
  14    -0.0005394377869184
  15    -0.0027260674291545
  16    2.8884637322675e-14
  17    -0.00083694897163687
  18    7.617315555903e-15
  19    0.0012104642693453
  20    -0.0017515496796118
  21    3.2786485556711e-14
  22    -0.0015703259573033
  23    7.0611674118386e-15
  24    -0.00057380975689275
  25      0.12351724051118
  26      0.26790218654744
  27      0.16379179758876
  28     -0.36101733364122
  29    -4.915418709358e-13
  30      -0.0444328621162
  31     -0.22175561195365
  32    -2.5592840876552e-13
  33    -0.031286251853265
  34    -0.074852308461129
  35    -2.0334050773733e-14
  36    -0.0037835198733724
  37    -0.010822512711367
  38       0.0232253915804
  39    -3.7599739334942e-14
  40    -0.010485880631553
  41    -2.2729076089469e-14
  42    7.6562882302097e-05
  43    0.0024511556437194
  44    2.2353966424298e-15
  45    0.00059445191514861
  46    -1.3721399993928e-14
  47     -0.27811227046534
  48      -0.1880622524493
  49     -0.03788816198123
  50    0.0030713041661992
  51    -1.3876232466903e-14
  52    -0.0092915895543741
  53    -0.018462070591889
  54    -3.8288130724084e-15
  55     0.019183607548905
 Sym= A
 Ene=               1
 Spin= Alpha
 Occup=    1.00000
   1    -7.4177049398093e-10
   2    -1.9409806853681e-11
   3    1.7463394027708e-11
   4    6.0882752722178e-12
   5    1.3272495431219e-12
   6      0.48293643377382
   7    -3.3504587004271e-12
   8    -2.5849455797315e-12
   9      0.29325120273613
  10    -1.5115931102087e-11
  11    -2.9673520077028e-13
  12     0.032802356604109
  13    -1.7105887206596e-12
  14    -7.2939406258222e-13
  15    -4.203865517096e-13
  16    -0.023547370697403
  17    5.0733806207696e-14
  18    -0.0062388229740347
  19    1.9421819656873e-12
  20    8.7415134850738e-13
  21    -0.026807233320924
  22    -4.5788004553829e-14
  23    -0.0057340089517254
  24    5.2951623459609e-10
  25    -5.0053286422716e-13
  26    -3.5441144901885e-11
  27    -8.4929473083626e-12
  28    9.6181036461605e-14
  29      0.40143086921762
  30    4.8254336259076e-12
  31    -5.8215794028777e-12
  32      0.20915817645098
  33    -1.2246162984196e-11
  34    -9.7070648024169e-13
  35     0.016157129053395
  36    -8.2199708249938e-13
  37    4.9210274797008e-13
  38    5.1157707476644e-13
  39      0.03072491661808
  40    8.0875020067503e-14
  41     0.018563257983275
  42    -4.7885859037498e-12
  43    -3.2332381529899e-12
  44    -0.0018467998350396
  45    -3.2430703731314e-13
  46     0.011167004887345
  47    -5.9213163944487e-12
  48    3.3742750726553e-12
  49    9.7683004123555e-13
  50    1.0153789504741e-12
  51     0.011418005103861
  52    -1.5022558684916e-13
  53    -1.5865706336957e-12
  54    0.0029799986058222
  55    1.7595470811682e-12
 Sym= A
 Ene=               2
 Spin= Alpha
 Occup=    1.00000
   1      0.00483277503407
   2     -0.08138176088207
   3     -0.16059108337036
   4     -0.12187292639283
   5     -0.15719490655256
   6    -1.0871667554948e-11
   7     -0.38129547469482
   8    -0.082405571637319
   9    -6.6012769669239e-12
  10     -0.17560595884687
  11    0.0062582543549217
  12    -7.3822426928068e-13
  13    -0.00031739842236369
  14     0.010589109847099
  15      0.01153274843191
  16    5.3013399955904e-13
  17    0.0031874722919313
  18    1.4047790962189e-13
  19    -0.0060621278932135
  20    0.0088695012105347
  21    6.033042937095e-13
  22    -0.0002449313636095
  23     1.28954289992e-13
  24     0.010882773370299
  25    -0.090903493922363
  26    -0.089910660935507
  27     0.053647604399287
  28    -0.071462452889291
  29    -9.0365131258228e-12
  30      0.43402049041758
  31     0.017716063265906
  32    -4.7085266387794e-12
  33       0.1307568244911
  34    0.0069005320126457
  35    -3.632735647954e-13
  36     0.021628733457878
  37     0.022844992760687
  38     0.023321940902833
  39    -6.916224857416e-13
  40    -0.0054451738737277
  41    -4.1789804497618e-13
  42     -0.01469696791063
  43    -0.008363955305206
  44    4.1312407273287e-14
  45     0.017618189511405
  46    -2.5129638512375e-13
  47     -0.29119714821304
  48     -0.10231391876262
  49    -0.007453644366597
  50     0.023688138911468
  51    -2.5704342721593e-13
  52    -0.0094203603997464
  53     0.010002495381411
  54    -6.7434187600408e-14
  55    -0.010889416816436
 Sym= A
 Ene=               3
 Spin= Alpha
 Occup=    1.00000
   1    -0.002832679713944
   2    -0.043569912556442
   3    -0.044456251675192
   4    0.0090152215403556
   5     -0.37723277001387
   6    2.7260361995288e-12
   7      0.16641671481974
   8     -0.22002325352838
   9    1.6545311172169e-12
  10     0.099306670058711
  11    -0.021628486382711
  12    1.8636944168861e-13
  13    0.0079991494960141
  14    -0.008988520477837
  15     0.017203305949977
  16    -1.3297391690821e-13
  17    0.0051013065761126
  18    -3.5271202881815e-14
  19    -0.0069419918555676
  20     0.018117579241334
  21    -1.5095503410403e-13
  22    0.0022969530970724
  23    -3.213901444459e-14
  24    0.0029695418650824
  25      0.20578062336689
  26      0.28727411619111
  27     0.046999436813781
  28     -0.39505436892568
  29    2.2657747010799e-12
  30    -0.064085543500859
  31      -0.1807303472571
  32    1.1810243979904e-12
  33    -0.050281294246731
  34    -0.015663569804833
  35    8.9812882015343e-14
  36    -0.0054963108472303
  37     0.012007564152354
  38    -0.025482566090959
  39    1.7338092650921e-13
  40    -0.020281631252327
  41    1.0478102283335e-13
  42    0.00034075970236625
  43    -0.0037511838430554
  44    -9.9301081185004e-15
  45    -0.0053984417963539
  46    6.3104780656688e-14
  47    -0.089284568949872
  48    -0.036884436882898
  49    -0.004320900357727
  50    -0.0024880020335209
  51    6.4434991973334e-14
  52    -0.0088331264216241
  53    -0.0034380765838293
  54    1.7040460101987e-14
  55    -0.011447290589495
 Sym= A
 Ene=               4
 Spin= Alpha
 Occup=    1.00000
   1    -0.0008736923981114
   2      0.36194206765611
   3      0.52882774995211
   4      0.14827683967104
   5    -0.0015164287803474
   6    2.1653191455468e-12
   7      0.24437705851139
   8    -0.018966087370479
   9    1.3151455395799e-12
  10     0.080487550115787
  11    -0.0043050969920879
  12    1.4699861408781e-13
  13    -0.0093767683568253
  14    -0.012146643051712
  15    0.00015874773617423
  16    -1.0558748836816e-13
  17    -0.0018545243818114
  18    -2.7966789637518e-14
  19    -0.0054094983405625
  20    0.0063282886803749
  21    -1.2027064424349e-13
  22    -0.0035310434911382
  23    -2.5719493533449e-14
  24    -9.0429984932425e-06
  25     -0.26748189920489
  26     -0.30274795135812
  27    -0.079507161804643
  28     -0.12963849254973
  29    1.7999053399988e-12
  30     0.078939418386769
  31    -0.038314331838591
  32    9.3747949379594e-13
  33    -0.057825648582752
  34    -0.0099005141669545
  35    7.2499406351936e-14
  36    -0.022821096667254
  37     0.010815292239364
  38    0.0056925758395434
  39    1.3772869719684e-13
  40    -0.0054802335564424
  41    8.3215503771254e-14
  42    -0.022308770975188
  43    -0.023729215026324
  44    -8.3615866272109e-15
  45     0.011643175321885
  46    4.9973010573998e-14
  47     -0.20461699403031
  48    -0.030634306414795
  49    0.0021792220994047
  50     0.019265610459942
  51    5.1216250234693e-14
  52    -0.012973876433779
  53    0.00057277201270214
  54    1.3348297264643e-14
  55    -0.0021990524456626
 Sym= A
 Ene=               5
 Spin= Alpha
 Occup=    1.00000
   1    -0.0032633318090197
   2      0.31286859573122
   3       0.2875591816228
   4    -0.023025354447533
   5    -0.033829831978756
   6    1.6759655773723e-11
   7     -0.23270221844687
   8    -0.0061453955721885
   9    1.0176355680745e-11
  10     -0.10497557411106
  11    0.0041337271460522
  12    1.1385323437267e-12
  13    0.0093489873572021
  14     0.018116476766626
  15       0.0078048044588
  16    -8.171418213988e-13
  17    -0.001762878419839
  18    -2.1652633070237e-13
  19     0.011732078449336
  20    0.0011060864893698
  21    -9.3032984829091e-13
  22    0.00052773099646995
  23    -1.988425334787e-13
  24    -0.022476162884593
  25      0.31115061252048
  26      0.15639389539183
  27     0.027198005612776
  28      0.11414508570969
  29    1.3931133178468e-11
  30      0.17903110309551
  31     0.011984533894913
  32    7.2586594578568e-12
  33     0.012692904368308
  34    0.0071775746613815
  35    5.6058028818419e-13
  36    0.00085931686584855
  37     0.020607448076581
  38     0.017863221326697
  39    1.0662598293868e-12
  40    0.0028357731693152
  41    6.4421491691166e-13
  42    -0.0055873257727595
  43    0.0030341163560734
  44    -6.3729382144926e-14
  45    -0.0085602618476245
  46    3.8751324019846e-13
  47     0.095792829773658
  48     -0.02624801970302
  49    -0.0029631101456684
  50    -0.013580496957372
  51    3.9628513828459e-13
  52     0.013681609255505
  53     0.012656371145135
  54    1.0354190314229e-13
  55    -0.0071685413742009
 Sym= A
 Ene=               6
 Spin= Alpha
 Occup=    1.00000
   1    0.00050770534296723
   2    0.0053218925500812
   3    0.0054996185244686
   4    0.0011515893069404
   5    0.0011729616360871
   6    -2.5355582106116e-10
   7    -0.003825151263519
   8    0.0012648230570707
   9    -1.5396822446224e-10
  10    -0.00077382484267712
  11    -5.1114488642172e-05
  12    -1.7224199875194e-11
  13    -0.00019051118270229
  14    -0.00040847380321077
  15    -0.00037204927504937
  16    1.2362284626716e-11
  17    -0.00010351501714585
  18    3.2753105496465e-12
  19    -0.0009477714441205
  20    -0.001037761738257
  21    1.4077537464846e-11
  22    -0.00024134085245181
  23    3.0112340411875e-12
  24        1.005402518523
  25     0.020558081114623
  26    -0.015469435525906
  27    -0.0066668849077109
  28     0.006816794042973
  29    -2.1076298719941e-10
  30    0.0025721991869174
  31    -0.0042000238192641
  32    -1.0981058039144e-10
  33    0.00034974544272989
  34    -0.0016185283808988
  35    -8.4814078067894e-12
  36    0.00059317151808713
  37    0.0011050981595294
  38    0.0002147495827926
  39    -1.6131327418697e-11
  40    0.00051857927089114
  41    -9.7462139228658e-12
  42    -0.0015105960422611
  43    -8.2118190560084e-05
  44    9.7204701261533e-13
  45    -0.00087078226980163
  46    -5.8618830489059e-12
  47    0.0048942015215926
  48     0.013819338850178
  49    0.0014730130464232
  50    0.00057496664084945
  51    -5.9949096629663e-12
  52    -0.00014008337379077
  53    -0.0047210395866976
  54    -1.5649936954523e-12
  55    0.0032716234792043
 Sym= A
 Ene=               7
 Spin= Alpha
 Occup=    1.00000
   1       1.0060757992745
   2     0.011000878024119
   3    -0.041095672048505
   4    -0.011096718352455
   5    -0.00039990548594195
   6    3.563073052583e-10
   7    -0.0017789873095878
   8    0.0045888284763962
   9    2.163586817518e-10
  10     0.018160498385108
  11    0.00076451879804337
  12    2.4201276691173e-11
  13    0.0016998360759561
  14    0.00031050726764411
  15    0.00015268843299332
  16    -1.7373075639513e-11
  17    8.6381657771429e-06
  18    -4.6029836219038e-12
  19    -0.0039574847670644
  20     -0.00188528840893
  21    -1.9778120026467e-11
  22    -0.00014073976326708
  23    -4.2305135300287e-12
  24    -0.00087080278918195
  25    -0.0018453609180862
  26     0.027026515235325
  27    0.0075585023954023
  28    0.0003818549318622
  29    2.9617302363848e-10
  30    4.8533779192465e-05
  31    0.0061299058118221
  32    1.5431559516685e-10
  33     0.020937341375329
  34    9.8450146213695e-05
  35    1.1920620549349e-11
  36    0.0023396028436384
  37    -0.00032805313577879
  38    -0.00047019110752572
  39    2.266863108677e-11
  40    0.00013083919656955
  41    1.3695849708049e-11
  42    0.0053657567363851
  43    0.0041061358686963
  44    -1.3624859505465e-12
  45    0.00073236379914449
  46    8.2389666998259e-12
  47    -0.00041557400300991
  48    0.0035299044900556
  49    -0.00041168240194119
  50    0.00030127254436847
  51    8.4241270083075e-12
  52    -0.00069622365766226
  53    -0.0015091861676425
  54    2.1986372841517e-12
  55    8.116477322211e-05
 Sym= A
 Ene=               8
 Spin= Alpha
 Occup=    0.00000
   1    -0.0081636066744904
   2    -0.014518042777798
   3      0.14621027858896
   4     -0.28765548627803
   5    -0.043267238387708
   6    2.5848176884911e-12
   7     0.047450517272561
   8    -0.065132996838422
   9    -2.1669637379899e-11
  10    -0.038241530653496
  11    0.0056509831307348
  12    -1.7844188251478e-12
  13     -0.23017424481191
  14    -0.0065347962305642
  15    0.0082632618774973
  16    -4.905444170397e-12
  17     0.001753487836149
  18    -4.1698404623635e-11
  19    0.0086870171583566
  20     0.011919092999947
  21    2.088417224231e-12
  22    0.0045771814710176
  23    3.1722480446824e-11
  24    -0.012884815755493
  25    0.0052707061799886
  26      0.23484894971342
  27       1.1031517448454
  28      -0.2248107803549
  29    -1.9415074181267e-11
  30     0.040984897268065
  31      -0.1394984375334
  32    3.2518176131022e-12
  33     -0.16441543166538
  34       1.3839592269098
  35    6.0298545889085e-11
  36     0.057666283535127
  37    0.0051240636490085
  38    -0.014489486596897
  39    -1.3282944410639e-11
  40    -0.015982193138766
  41    1.5185633434201e-11
  42    -0.054674357662179
  43    -0.046610932166798
  44    1.9705411203096e-11
  45     0.053343591771113
  46    -1.3386925024264e-11
  47     0.016786196503552
  48     -0.80525784336539
  49     -0.83467824996939
  50      0.02534842532929
  51    1.3745990973326e-11
  52    -0.0079577853190236
  53      0.18083133469223
  54    -7.0177859910015e-12
  55     -0.20151993245847
 Sym= A
 Ene=               9
 Spin= Alpha
 Occup=    0.00000
   1    -9.087877744321e-11
   2    -1.6968036781825e-10
   3    1.2555760184427e-09
   4    1.2885342575139e-09
   5    -6.969063013137e-11
   6     -0.45392147777194
   7    -4.9666545713011e-11
   8    3.6352479592905e-10
   9     -0.32517729186094
  10    -6.9406154633146e-10
  11    -1.0668533592162e-12
  12     -0.26297338276193
  13    -3.2969544571538e-10
  14    -5.3993988886218e-11
  15    2.0011161174288e-10
  16    -0.0032891146434905
  17    1.8696665826017e-10
  18    -0.001066369090842
  19    2.5515768622843e-10
  20    -3.6292009661975e-10
  21    0.00055757546432385
  22    -3.8148269216813e-10
  23    -0.0076529240815442
  24    2.2378173415756e-10
  25    3.964713775059e-10
  26    -2.163533788713e-09
  27    -1.6802889209398e-09
  28    -8.0372468549059e-11
  29      0.63327287279645
  30    1.1304532772958e-10
  31    -1.3227222170787e-09
  32      0.35868812200332
  33    -6.3003105428475e-10
  34    -3.2601179287731e-10
  35      0.11751090048194
  36    -2.1640000456465e-10
  37    -7.7623103639351e-15
  38    6.9536559969528e-11
  39    -0.0031848731716639
  40    -9.3175314331792e-11
  41    -0.0035530004901382
  42    -5.6000365756876e-11
  43    -4.3685862832577e-10
  44    -0.0039818472036743
  45    -2.2102333216571e-10
  46    -0.016579574912403
  47    4.8922601260241e-10
  48    8.9002758368451e-10
  49    2.3023105827769e-10
  50    -2.3947494809102e-10
  51     0.017550125282848
  52    2.0483955094265e-10
  53    -5.9209809951242e-11
  54    -0.019417819542121
  55    3.2256548228272e-10
 Sym= A
 Ene=              10
 Spin= Alpha
 Occup=    0.00000
   1    0.0055200039553735
   2    -0.0016963020113085
   3     0.025063269957311
   4      0.49647708582486
   5     0.062290328530286
   6     -2.2977486923e-10
   7     -0.12787766843963
   8     0.090478256320748
   9    7.4585814531996e-10
  10     -0.23055908674921
  11     0.049557607483256
  12    -2.2078638224962e-10
  13     0.037052092690703
  14    -0.017908998662846
  15    -0.0029640583118667
  16    -6.3713487612023e-10
  17    0.0042354290922215
  18    8.163300306962e-10
  19    -0.040608120089119
  20    -0.016528159840795
  21    9.6329178722835e-11
  22     0.019046379267551
  23    -6.8833466227222e-10
  24    -0.047050257123387
  25     -0.30271707475904
  26     -0.75790868741533
  27     -0.30569518864753
  28     -0.31003991710707
  29    1.534155003819e-10
  30      0.39836486032286
  31     -0.24319793849587
  32    -7.3721188986036e-10
  33     -0.13638005552816
  34     -0.16941681031292
  35    -8.2355599674637e-12
  36    -0.096377163844739
  37     0.043101552668638
  38    -0.061374429691488
  39    -2.3823158704214e-10
  40    0.0025507877176688
  41    5.2726821401653e-10
  42      0.05549461321481
  43     -0.07217504518859
  44    -1.8198778166169e-10
  45    0.0055190202374669
  46    -4.4482398435712e-10
  47      0.32785111596352
  48      0.76831068678075
  49      0.28999243054949
  50     0.017573728891828
  51    -4.6081119618769e-10
  52    -0.052448715387753
  53     -0.27321726925195
  54    6.1990884161146e-10
  55    -0.084063963754524
 Sym= A
 Ene=              11
 Spin= Alpha
 Occup=    0.00000
   1    -0.00090636246821599
   2    -0.063130947731138
   3     -0.37995737303516
   4      0.98454863281217
   5     -0.11598144041256
   6    2.5695382476894e-11
   7      0.22991371314211
   8    -0.089085403181228
   9    -1.4647111372246e-09
  10      0.21681807571642
  11       1.1950758255603
  12    -3.3626801054378e-10
  13     -0.58933119296111
  14    0.0080792905793901
  15    0.0017355980458217
  16    -1.0396867930233e-09
  17    0.0057191124616267
  18    6.5770801115462e-10
  19     0.013587384298445
  20     0.011708827250569
  21    1.781358078996e-09
  22    0.0064163060738377
  23    6.784172100956e-12
  24      0.10253560741423
  25      0.29087922966316
  26    -0.019980003896332
  27       -1.786425139463
  28      -0.2408715696829
  29    -2.1464664709397e-10
  30     0.088328949050823
  31      0.25913519302564
  32    2.1412268406248e-09
  33      0.45791880139614
  34      -1.7008106395356
  35    -2.9474757171304e-10
  36    -0.074616855828332
  37    -0.054005850813929
  38    -0.065469672244988
  39    -3.0254877208939e-10
  40     0.094807016382978
  41    4.5852314191329e-10
  42     0.019139269267212
  43    0.0044174969788659
  44    1.2049396884438e-09
  45      0.12446973273873
  46    5.6995925456597e-10
  47      0.16745609600548
  48      0.50731963668401
  49      0.71734701371324
  50     0.026116338640031
  51    -6.4431605958522e-10
  52     0.006722333578008
  53      0.21891560036403
  54    2.5515136945147e-10
  55      0.20796941740644
 Sym= A
 Ene=              12
 Spin= Alpha
 Occup=    0.00000
   1    -0.030768029360588
   2     0.037748078467125
   3      0.85615627750538
   4     -0.51702959670101
   5     0.066297826161581
   6    -8.5860786935768e-10
   7     0.098848219156263
   8      -0.0158114698861
   9    9.5523085475638e-10
  10     0.022747348667117
  11      0.27698300861326
  12    2.5575486572016e-10
  13     -0.11466327455913
  14    0.0085699425276881
  15     0.028068616351306
  16    -8.6701206080042e-10
  17    -0.013917230296563
  18    -9.6933309844691e-10
  19     0.041276072039819
  20       0.1017111145475
  21    -4.7625912232529e-11
  22    -0.065847678087131
  23    7.9260150287163e-12
  24      -0.1701095658729
  25      -0.3997920715504
  26      0.21859199873252
  27     -0.41934653888994
  28      -0.1182670028732
  29    -4.2804205292774e-10
  30      0.29721207228073
  31      0.02210812777785
  32    -8.4030101692507e-11
  33     -0.32486365797913
  34     -0.27743225943919
  35    -1.0480134965142e-09
  36     -0.26299674993561
  37    0.0071498282177451
  38    -0.048979879340957
  39    -1.2548259825928e-10
  40     0.019174322728573
  41    3.6455329919063e-10
  42     -0.20810188785774
  43     -0.18357439099005
  44    -1.3382066861232e-10
  45    -0.017014979360023
  46    5.1463600243697e-10
  47      0.31456794307916
  48    -0.053853215381087
  49     -0.15727261152557
  50     -0.02098865704443
  51    -5.9319698440946e-10
  52    -0.014432317827249
  53     -0.43596914713117
  54    1.0719894259824e-09
  55    0.00081560405447465
 Sym= A
 Ene=              13
 Spin= Alpha
 Occup=    0.00000
   1     0.033661026631197
   2      0.11577249779655
   3     -0.35306638746306
   4       1.5431275158817
   5     -0.24103475545075
   6    3.182865215497e-10
   7     -0.28429176078962
   8    -0.081599945406608
   9    9.8255455469718e-09
  10     -0.10482648477202
  11       0.3465449442604
  12    -1.1552023835528e-08
  13      -0.6967039555284
  14      0.11886296349705
  15     0.029342601925395
  16    2.2180259356882e-09
  17     0.036069841572319
  18    -4.7484107324634e-09
  19    -0.010303013339759
  20    -0.074590612380838
  21    -5.6827329755659e-09
  22     0.036199259059848
  23    5.1844289695956e-10
  24     -0.43979761120899
  25      -1.1588953934234
  26       0.6144921088132
  27      -1.2649752222367
  28     -0.11618944057435
  29    1.3416473204945e-09
  30     -0.40221627108809
  31    -0.076512448651411
  32    -9.4112102086448e-09
  33      0.13948803258497
  34     -0.36589120072285
  35    1.3340811752672e-08
  36     -0.14514919029623
  37     -0.14179980939597
  38       0.1876331256993
  39    -2.4024442958185e-09
  40    -0.060287222330034
  41    1.7603561873889e-09
  42    -0.076367563964194
  43     -0.02051927628168
  44    -4.0248692227514e-09
  45    -0.007521889735519
  46    -2.5370904193272e-09
  47      0.20770329052105
  48     -0.14847637939351
  49    -0.078528350710753
  50     -0.10455168641774
  51    4.8120724242164e-09
  52     0.058515024334477
  53      -0.2238569149643
  54    -6.3436046020497e-09
  55      0.13626916872171
 Sym= A
 Ene=              14
 Spin= Alpha
 Occup=    0.00000
   1     -0.18667689759551
   2     -0.31493510095439
   3       1.9356373233642
   4      0.80126248934594
   5     0.035996199337595
   6    -1.9797940351566e-07
   7    -0.026381549281106
   8     -0.49958396060092
   9    7.7484667966748e-07
  10      -1.1225490990538
  11     -0.50108672359338
  12    -3.4157866091822e-06
  13    -0.046727798231761
  14     0.067138336151808
  15     -0.01438570802879
  16    -3.4853465796164e-07
  17    -0.011290404735219
  18    -8.9388770462893e-07
  19      0.27133044971671
  20      0.14899379784937
  21    1.0552907231334e-06
  22    0.0074668989765932
  23    6.6642146287408e-07
  24     -0.17078770930124
  25     -0.38305231100434
  26     -0.62317615109456
  27       0.7599524435124
  28      -1.1471372017315
  29    -1.3766703840154e-07
  30      0.10870198920819
  31       1.0609533399246
  32    8.112363818991e-07
  33      -1.7199087371639
  34      0.32906784095805
  35    1.4588282771736e-06
  36       -0.196579985581
  37    -0.046068968576998
  38      0.19450750017256
  39    -2.6779436045354e-07
  40     -0.28725724816692
  41    7.9367102669786e-08
  42     -0.42231719807855
  43     -0.17377047141455
  44    5.4956785301192e-07
  45      0.12772130763217
  46    1.547768717078e-07
  47      0.31310721923089
  48      -2.2420301738206
  49     -0.31407996663191
  50     -0.57641767311054
  51    -5.5894209924189e-07
  52      0.47780035220351
  53       0.8454339223871
  54    6.6285425911333e-07
  55     -0.59217099404719
 Sym= A
 Ene=              15
 Spin= Alpha
 Occup=    0.00000
   1      0.45594050989788
   2       1.0294823949457
   3      -2.4077777593666
   4       2.3696992730369
   5      0.33434365186876
   6    -7.0198574286264e-07
   7       0.8022509140645
   8     -0.57985774042127
   9    3.5758411037568e-06
  10     -0.76540299898751
  11    -0.031337362052238
  12    4.2600194422852e-05
  13     -0.38773067361408
  14    -0.089380772844676
  15     -0.18498760889443
  16    2.9728726267999e-07
  17      0.17543799892986
  18    9.913225533306e-08
  19       0.2722317505965
  20      0.22737339553346
  21    -4.3480301884817e-06
  22     0.041729784309404
  23    -3.8098511835856e-06
  24     -0.28576297463429
  25     -0.51421362671811
  26      0.55609042714933
  27      -1.5136916499676
  28     0.013588582512459
  29    1.2032305951934e-06
  30    -0.019682220911545
  31      0.42714487487371
  32    2.1898218802348e-06
  33      0.64954459111948
  34      -0.1275248265388
  35    -3.2122939788198e-05
  36     -0.33321435459697
  37      0.16984384652905
  38     0.094278364579564
  39    2.5583185599997e-06
  40       0.1032604251061
  41    -1.4317376936638e-06
  42      0.11053560301735
  43      0.41686203121494
  44    -2.2110053029156e-05
  45    0.0099423357257471
  46    2.423584410246e-06
  47    -0.0078087356719992
  48     -0.14896416103123
  49      0.14824062795847
  50    -0.0060744970184018
  51    -4.2681475720822e-06
  52    -0.066362693650647
  53    -0.047190776209066
  54    -1.2932748430202e-05
  55     -0.28174056193632
 Sym= A
 Ene=              16
 Spin= Alpha
 Occup=    0.00000
   1    -0.00036994870101592
   2    -0.0004700085952569
   3    0.0056782425871456
   4     0.017942827630315
   5    -0.00086448768067037
   6     -0.22271221274081
   7    -0.00096032036277087
   8    -0.0016623715644116
   9     -0.28446157871471
  10    -0.0026300052436579
  11     0.001771729934917
  12       2.0250350593684
  13    -0.0044498150311536
  14    0.00030131547448741
  15    0.00017037490939554
  16      0.01344758270752
  17    -3.1564549134377e-05
  18    0.0031380014594925
  19    0.00042328124318428
  20    0.00014233394772567
  21     -0.03983691815189
  22    -8.1373490428575e-05
  23    -0.0075589906184529
  24    -0.0011252927422154
  25    -0.0024373077886249
  26    -0.003106903758152
  27    -0.050419782687154
  28    -0.00026565091434791
  29      0.10317507125116
  30    -0.00014351484145204
  31    -0.0031618471207867
  32     0.047995522630743
  33    -0.004782574465688
  34    -0.0055693277633454
  35       -1.585122899025
  36    0.00046813461765266
  37    -4.5612472803463e-05
  38    0.00033449452467889
  39    0.00050073872733956
  40    -0.00063791401368762
  41    0.0031800540348784
  42    -0.0016986443091357
  43    -0.00059927497616743
  44    -0.062271902094974
  45    -0.00058014967869235
  46     -0.01906303959466
  47    0.00056510988951644
  48    0.0089651003583769
  49     0.026960003897053
  50    -0.00097183803157543
  51    0.00047091573219855
  52    0.00056157230505138
  53    -0.0087381278800271
  54    0.00085849727106414
  55    0.0022947149327909
 Sym= A