[Molden Format]
made by pyscf v[2.13.1]
[Atoms] (AU)
O   1   8     0.21099695469856     0.00000000000000     2.15462460678861
N   2   7    -0.44776862100326     0.00000000000000    -0.03589262653049
H   3   1     1.18163474748449     0.00000000000000    -1.17386889907833
[GTO]
1 0
 s    8 1.00
                 11720  0.00070964594651845
                  1759  0.0054672722921914
                 400.8   0.027823118610189
                 113.7    0.10474773971146
                 37.03    0.28292084635691
                 13.27    0.44849523869833
                 5.025    0.27081688521277
                 1.013    0.01545029160744
 s    8 1.00
                 11720  -0.00031444341168873
                  1759  -0.0024821376810179
                 400.8  -0.012316355381583
                 113.7  -0.050538917343672
                 37.03   -0.13938490331632
                 13.27   -0.32507749481778
                 5.025   -0.22984830758785
                 1.013     1.0953793467883
 s    1 1.00
                0.3023                   1
 s    1 1.00
               0.07896                   1
 p    3 1.00
                  17.7   0.062679166281506
                 3.854    0.33353656587936
                 1.046    0.74123964163973
 p    1 1.00
                0.2753                   1
 p    1 1.00
               0.06856                   1
 d    1 1.00
                 1.185                   1
 d    1 1.00
                 0.332                   1

2 0
 s    8 1.00
                  9046  0.00069961741342552
                  1357  0.0053860546299287
                 309.3   0.027391021189057
                 87.73    0.10315059198201
                 28.56    0.27857066331743
                 10.21    0.44829484945412
                 3.838    0.27808592839527
                0.7466   0.015431561233271
 s    8 1.00
                  9046  -0.00030499009595337
                  1357  -0.0024080263785077
                 309.3   -0.01194444872518
                 87.73  -0.048925992909017
                 28.56   -0.13447272472496
                 10.21   -0.31511257770011
                 3.838   -0.24285783254964
                0.7466     1.0943822068542
 s    1 1.00
                0.2248                   1
 s    1 1.00
               0.06124                   1
 p    3 1.00
                 13.55   0.058905676772132
                 2.917    0.32046110671427
                0.7973    0.75304206179207
 p    1 1.00
                0.2185                   1
 p    1 1.00
               0.05611                   1
 d    1 1.00
                 0.817                   1
 d    1 1.00
                  0.23                   1

3 0
 s    3 1.00
                 13.01   0.033498726389998
                 1.962    0.23480080117413
                0.4446     0.8136829578829
 s    1 1.00
                 0.122                   1
 s    1 1.00
               0.02974                   1
 p    1 1.00
                 0.727                   1
 p    1 1.00
                 0.141                   1

[5d]
[7f]
[9g]

[MO]
 Sym= A
 Ene=               0
 Spin= Alpha
 Occup=    1.00000
   1    -0.002755091011893
   2    -0.014709370252048
   3    -0.012139085725669
   4    -0.011352738529435
   5      0.53456113579466
   6    -2.8498597131187e-14
   7    -0.093997340738282
   8      0.37203304220213
   9    -1.7357821394193e-14
  10    -0.072982316750564
  11      0.12597736630913
  12    -1.3101080597499e-15
  13    -0.022997225331238
  14    -0.00050215909765374
  15    -0.0030831989651607
  16    1.449154125668e-15
  17    -0.00094387943484217
  18    3.4983661718205e-16
  19    0.0011720691179463
  20    -0.0020293912979145
  21    1.5381106010393e-15
  22    -0.001678699369418
  23    3.7171288360012e-16
  24    -0.00087966286731814
  25      0.11194155051721
  26      0.25484571364331
  27      0.16183705917118
  28     -0.35441105775499
  29    -2.3789167257975e-14
  30    -0.038855049143652
  31     -0.21768012121103
  32    -1.2235178709194e-14
  33    -0.029670417544734
  34    -0.074551253910501
  35    -1.4686741420318e-15
  36    -0.0037560321885965
  37    -0.010883683093641
  38     0.024015334994664
  39    -1.7980255136569e-15
  40    -0.010131625107464
  41    -1.0995430043625e-15
  42    -0.00033360696431582
  43     0.002123111867205
  44    6.4382291333174e-17
  45    0.0011057191580518
  46    -7.12188828304e-16
  47      -0.2819551289514
  48     -0.18829495058435
  49    -0.037788384071407
  50    0.0037028841388361
  51    -5.7165173806444e-16
  52    -0.0094258660942928
  53    -0.018348350414816
  54    -3.6590325556874e-16
  55     0.019366254271867
 Sym= A
 Ene=               1
 Spin= Alpha
 Occup=    1.00000
   1    -0.0035932486851961
   2     0.057180872361108
   3     0.063752915136267
   4    -0.00060829971806995
   5      -0.3896012187623
   6    -2.7504635820044e-11
   7     0.055136922175245
   8     -0.22512138557779
   9    -1.6702144529905e-11
  10     0.039453594710455
  11    -0.016109890942317
  12    -1.8669719986116e-12
  13    0.0063504836347817
  14    -0.0049511062711238
  15     0.020392154789438
  16    1.3410657415074e-12
  17    0.0049729992443093
  18    3.5527898226836e-13
  19    -0.0074799142965604
  20     0.020740899445778
  21    1.5269864900761e-12
  22    0.0013720514400929
  23    3.2675488383363e-13
  24    -0.0075771900185121
  25      0.15677822547319
  26      0.20447197702944
  27     0.049751218312875
  28     -0.40086936252408
  29    -2.2862723590419e-11
  30      0.11059226531751
  31     -0.17130266947718
  32    -1.1911905467017e-11
  33    -0.018562931070908
  34    -0.014682918743127
  35    -9.2137753383517e-13
  36    -0.0033637474814512
  37     0.022883737225637
  38    -0.012362167570422
  39    -1.7499174190595e-12
  40    -0.021172868587347
  41    -1.0572407225334e-12
  42    -0.0094170857101255
  43    -0.010293229993027
  44    1.0557219487911e-13
  45    0.0013154630447687
  46    -6.3593748588449e-13
  47     -0.20029443690181
  48    -0.077734385123369
  49    -0.0068550506727926
  50    0.0066180845693509
  51    -6.5029205605793e-13
  52     -0.01166989808784
  53    0.0015096376115051
  54    -1.6960314507643e-13
  55    -0.014960247436941
 Sym= A
 Ene=               2
 Spin= Alpha
 Occup=    1.00000
   1    7.5512671049493e-09
   2    1.2803587210124e-09
   3    7.4323078165655e-10
   4    -2.2245362867874e-10
   5    1.7538950669072e-11
   6      0.48293643377382
   7    -1.1926199695117e-09
   8    1.1338768215193e-10
   9      0.29325120273613
  10    -3.9014497268235e-10
  11    3.5806868676655e-11
  12     0.032802356604109
  13    4.2877673161061e-11
  14    7.4842925744887e-11
  15    2.1286981553413e-11
  16    -0.023547370697403
  17    -9.113953614341e-12
  18    -0.0062388229740347
  19    3.5078943511556e-12
  20    -3.1155418273861e-11
  21    -0.026807233320924
  22    -3.0637674214809e-12
  23    -0.0057340089517254
  24    1.4167150732775e-08
  25    1.3811896631229e-09
  26    4.7103806042694e-10
  27    7.7512334048624e-11
  28    7.0472199021655e-10
  29      0.40143086921762
  30    8.731044520086e-10
  31    1.2240450775488e-10
  32      0.20915817645098
  33    2.8461185622456e-10
  34    1.460447380405e-11
  35     0.016157129053395
  36    4.2418502173235e-11
  37    9.1395138449444e-11
  38    8.6111043652253e-11
  39      0.03072491661808
  40    2.7312695482169e-11
  41     0.018563257983275
  42    -3.6454798810399e-12
  43    4.409556638805e-11
  44    -0.0018467998350396
  45    -3.3041561192897e-11
  46     0.011167004887345
  47    4.0421732929188e-10
  48    1.0779780281336e-10
  49    5.0078605735194e-12
  50    -3.5393011603058e-11
  51     0.011418005103861
  52    4.7650219732369e-11
  53    -2.5856404931052e-11
  54    0.0029799986058222
  55    2.2226900904487e-11
 Sym= A
 Ene=               3
 Spin= Alpha
 Occup=    1.00000
   1    -0.0099829127260612
   2      0.41170609463705
   3      0.47734230949416
   4     0.080144600947039
   5     0.067331415132742
   6    -1.6922182486478e-09
   7     0.039943214522163
   8      0.04120618850299
   9    -1.027558195468e-09
  10    0.0088522686276305
  11    0.0011963754523287
  12    -1.1494018829962e-10
  13    0.0044954513199379
  14    0.0072447361829572
  15    0.00031750058783064
  16    8.2510408142641e-11
  17    -0.0037949415208217
  18    2.1860919367347e-11
  19     0.011303432029052
  20    -0.002277698031728
  21    9.3933166364453e-11
  22    -0.00068509441603006
  23    2.0092264882236e-11
  24     0.013711234770372
  25      0.20792059957493
  26     0.061218381528647
  27    -0.028104860692218
  28      0.11125193543104
  29    -1.4066213484537e-09
  30    -0.016649757362674
  31    0.00050857130427444
  32    -7.3289401655427e-10
  33    -0.062741779032889
  34    0.00049234860892847
  35    -5.6615032115337e-11
  36    -0.015610951673103
  37     0.009566490008812
  38    0.0079280741931276
  39    -1.0766070532304e-10
  40    0.0043745799484288
  41    -6.5045998281838e-11
  42    -0.0050109772616672
  43    -0.00074374566098382
  44    6.4716753718684e-12
  45     -0.01120047824755
  46    -3.9129444442987e-11
  47      0.15273020449735
  48     0.016536225983062
  49    0.0016953358179106
  50    -0.015907553168788
  51    -4.0008863642017e-11
  52     0.012216648324142
  53    0.0062534993539027
  54    -1.0441742774648e-11
  55    -0.00087917336154191
 Sym= A
 Ene=               4
 Spin= Alpha
 Occup=    1.00000
   1    -0.0010798756486704
   2      0.25433479962442
   3      0.37794106553136
   4     0.089386537094342
   5     0.043352791558676
   6    4.7342437948692e-10
   7     0.073725089365328
   8    0.0090752072634539
   9    2.8747600616509e-10
  10    -0.00041537614411861
  11    0.00095200922998035
  12    3.2155961855861e-11
  13    -0.011537067418573
  14    -0.0072461118794619
  15    -0.0018284050545676
  16    -2.3083533256874e-11
  17    -0.0016659769230596
  18    -6.1158980321625e-12
  19    -0.0067069187585632
  20    0.0034572978466312
  21    -2.6279552544622e-11
  22    -0.0038762580774668
  23    -5.6212350356125e-12
  24    -0.026716166464244
  25     -0.37651588239665
  26     -0.40849798473284
  27    -0.072325360319873
  28    -0.037142357935266
  29    3.9352436523711e-10
  30      0.21171974421934
  31     0.026745785412677
  32    2.0503799876316e-10
  33    0.0074314645819841
  34    -0.001230164659158
  35    1.5839472540902e-11
  36    -0.011084013797592
  37     0.011107924385279
  38     0.016999358284645
  39    3.0119748189758e-11
  40    -0.0012146315400714
  41    1.8197612865583e-11
  42     -0.02394276288613
  43    -0.023266585071465
  44    -1.8108619235633e-12
  45     0.019226527710446
  46    1.094695121152e-11
  47     -0.26468565126335
  48    -0.044220543257408
  49    0.0018262571547843
  50      0.02789603915545
  51    1.1193130276345e-11
  52    -0.014094325789313
  53    0.0035819770487392
  54    2.9211071285814e-12
  55    -0.0019386719317446
 Sym= A
 Ene=               5
 Spin= Alpha
 Occup=    1.00000
   1    -0.0036369269614301
   2    0.0025202131537556
   3       0.1254827151702
   4      0.15151635306286
   5     0.042830262370173
   6    1.5525499216277e-09
   7      0.52479548493122
   8    0.0060359209370062
   9    9.4274764791679e-10
  10      0.23668902431742
  11    -0.012966927170195
  12    1.0545359129191e-10
  13    -0.0052618388981493
  14    -0.023095365974274
  15    -0.0082510513397005
  16    -7.570039483535e-11
  17    -0.00080156366747862
  18    -2.005665684189e-11
  19    -0.0045215568254351
  20    -0.0007423587445176
  21    -8.6180195439974e-11
  22    -0.00052361821185766
  23    -1.8433726686186e-11
  24    -0.060351347066638
  25     -0.11188229072364
  26    -0.021685091588122
  27    -0.064836752538482
  28     -0.14554950291615
  29    1.2905245336286e-09
  30     -0.41673517133639
  31    -0.078965523621539
  32    6.7240400778301e-10
  33       -0.137377253099
  34    -0.016258075514736
  35    5.1941408795751e-11
  36    -0.025340451344718
  37    -0.021658635365149
  38    -0.031625522070682
  39    9.8774772321601e-11
  40    -0.0042088766180152
  41    5.9677385659251e-11
  42    0.0076417380448353
  43    -0.0030860336761468
  44    -5.9371433666181e-12
  45    -0.0071662837524903
  46    3.5899682583379e-11
  47     0.090247354132888
  48     0.071066632321664
  49    0.0064074227573819
  50    -0.0063894671536082
  51    3.670673762127e-11
  52    -0.0057678691055774
  53    -0.014540058230944
  54    9.5804201300027e-12
  55    0.0082432016776577
 Sym= A
 Ene=               6
 Spin= Alpha
 Occup=    1.00000
   1     -0.03881834402753
   2    -0.001507192442961
   3     0.010212750790581
   4     0.011159206770574
   5    -0.0008301708089899
   6    -6.5456974406355e-09
   7     0.031116959067099
   8    -0.0018547140034173
   9    -3.9747155273221e-09
  10     0.013613509127285
  11    -0.0010218569615693
  12    -4.446035627037e-10
  13    -0.0010896724821349
  14    -0.0024552019762421
  15    -0.00077439938884414
  16    3.1915916249882e-10
  17    -1.7747980973604e-05
  18    8.4560456415584e-11
  19    -0.0018044104888462
  20    -0.00060759015792084
  21    3.6334690995696e-10
  22    -0.00035869206673168
  23    7.7719188585405e-11
  24       1.0026944282556
  25    -0.005052529903659
  26    -0.031532640936929
  27    -0.011858605289826
  28    -0.012058367935975
  29    -5.4409748894139e-09
  30     -0.01530276444644
  31    -0.010443938310186
  32    -2.8349163894739e-09
  33    -0.0068183886066144
  34    -0.0029050624660227
  35    -2.1899142800978e-10
  36    -0.00092452758492783
  37    -3.0734339586369e-05
  38    -0.0016335247363994
  39    -4.1644390364973e-10
  40    -0.00017521911351642
  41    -2.5160547404363e-10
  42    -0.0019313137235297
  43    -0.0012797835581069
  44    2.5033833891981e-11
  45    -0.00028992859316244
  46    -1.5135593812044e-10
  47    -0.0059332231484092
  48     0.015298550517671
  49    0.0018106771114676
  50    0.0017430044311085
  51    -1.5475922058664e-10
  52    -0.0015264866636548
  53    -0.0057123471278928
  54    -4.0391163576321e-11
  55    0.0036311718221009
 Sym= A
 Ene=               7
 Spin= Alpha
 Occup=    1.00000
   1       1.0052853332253
   2     0.013941727921924
   3    -0.036926922191172
   4    -0.0098975299665072
   5    -0.00059471911597797
   6    -3.891143276023e-09
   7    0.00023798327661547
   8    0.0043734757527385
   9    -2.3628007182948e-09
  10     0.018936126151493
  11    0.00069755553907458
  12    -2.6429720091555e-10
  13    0.0016510533076977
  14    0.00020681224704505
  15    0.0001478730170623
  16    1.8972722085851e-10
  17    -8.5749111238066e-06
  18    5.0267772802346e-11
  19    -0.0040120556557931
  20    -0.0018762101253992
  21    2.1599298046255e-10
  22    -0.00016913291964971
  23    4.6200416134167e-11
  24     0.038332780359865
  25    -0.0020605385129485
  26     0.025081134476927
  27     0.006765699701535
  28    -0.00038988465824794
  29    -3.2344319576905e-09
  30    4.8020229641485e-05
  31    0.0054987800186613
  32    -1.6852411015064e-09
  33     0.020300778722186
  34    -4.7395446507837e-05
  35    -1.3018209525512e-10
  36    0.0021725709438928
  37    -0.00021740040866223
  38    -0.00047551580466333
  39    -2.47558572804e-10
  40    0.00010476108161483
  41    -1.4956895005906e-10
  42    0.0051779189473782
  43    0.0039594342483329
  44    1.4880308213162e-11
  45    0.0007283965102886
  46    -8.9975368091899e-11
  47    -0.0010493543042515
  48    0.0039781821915241
  49    -0.00033377523955108
  50    0.00039113505309273
  51    -9.1997815157939e-11
  52    -0.000764680893108
  53    -0.0016952892149441
  54    -2.401061753743e-11
  55    0.00019130807484143
 Sym= A
 Ene=               8
 Spin= Alpha
 Occup=    0.00000
   1    5.2099100601505e-12
   2    6.385981389362e-12
   3    -5.6413876975532e-11
   4    -6.3458130635635e-11
   5    -6.0121764450058e-12
   6     -0.48832114739032
   7    1.4151934454227e-11
   8    3.087300266665e-11
   9      -0.3657656230094
  10    5.1798693935218e-11
  11    6.9822371239832e-12
  12     -0.16767916967524
  13    1.9642170079088e-11
  14    6.6061384828889e-12
  15    2.0185043735301e-11
  16    -0.0064633318550057
  17    -2.9920443650694e-11
  18    -0.0019066470220675
  19    -2.7319901656534e-11
  20    -3.1023647146346e-11
  21    -0.0020085927954288
  22    2.373333416575e-11
  23    -0.0060659315186081
  24    -7.3058026659182e-12
  25    -1.6005323224055e-11
  26    1.5437549203014e-10
  27    1.0146332531586e-10
  28    -1.1645088556025e-11
  29      0.52819447926329
  30    2.2832403321545e-11
  31    3.1482712565265e-11
  32      0.40774579458443
  33    3.1707307904756e-11
  34    1.7228312062031e-11
  35      0.17014305182931
  36    -4.9865828714915e-12
  37    3.2646617902024e-11
  38    3.9269168873688e-11
  39    -0.015889875881811
  40    4.9376711001726e-12
  41     0.014458552926277
  42    -1.6028933889035e-11
  43    -1.1942528648048e-11
  44    -0.013221824221854
  45    -1.1390675957618e-11
  46     0.015705447363688
  47    2.0780812539804e-11
  48    -1.0706913538207e-10
  49    -2.1071767701704e-11
  50    -1.7992258185505e-11
  51     0.020604570140234
  52     7.27243339243e-12
  53    3.1204470292969e-11
  54     0.038261118944158
  55    -3.3815732308045e-11
 Sym= A
 Ene=               9
 Spin= Alpha
 Occup=    0.00000
   1    -4.1971584427554e-10
   2    -8.0746751695037e-10
   3    2.6037535257155e-09
   4    3.021787702479e-09
   5    4.818689066743e-10
   6     -0.52252253000147
   7    -9.7645392582844e-11
   8    -1.7822401991771e-09
   9      0.25955009748276
  10    -1.3756823051136e-09
  11    1.7997161082271e-10
  12      0.31986522431943
  13    -1.8513598394437e-09
  14    -4.579069182704e-10
  15    -1.2958894263279e-09
  16    -0.050715159852423
  17    2.8674049422974e-09
  18    -0.066414048049577
  19    -4.1422138841863e-10
  20    2.2163341606528e-09
  21     -0.26736178945178
  22    -1.5126426529325e-09
  23    -0.064587386824607
  24    -6.8657128768639e-10
  25    -1.4148679715405e-09
  26    3.2797116337161e-09
  27    1.2745310951166e-09
  28    -8.0868516700263e-11
  29     -0.30808665054018
  30    3.1142967198346e-10
  31    1.9127267331031e-09
  32      0.11721039016349
  33    -3.9859722544749e-09
  34    5.0510373340052e-10
  35     -0.25309839783295
  36    2.9285618321734e-10
  37    -4.7890043601326e-10
  38    4.0958756347362e-10
  39      0.22273328428553
  40    2.9919387989664e-10
  41      -0.3176189465322
  42    2.7235386579078e-10
  43    5.8901828033621e-10
  44      0.39400970620932
  45    -5.1399787793377e-10
  46     -0.28109128170397
  47    9.7899643603197e-10
  48    -8.2322316314675e-09
  49    -6.7451057908113e-10
  50    9.3577690956247e-10
  51     0.083202785860933
  52    1.6160938068162e-09
  53    2.8709916568797e-09
  54     0.023774349760005
  55    -3.0374797599233e-09
 Sym= A
 Ene=              10
 Spin= Alpha
 Occup=    0.00000
   1     0.012227377000953
   2      0.10084133062354
   3      0.39786313692295
   4     -0.35082238838416
   5      0.17484905614135
   6    -6.964368614906e-10
   7     -0.24517205111621
   8    -0.090347977080939
   9    6.7474548982883e-10
  10     -0.10893096594635
  11      -0.4521153049712
  12    2.0678492158049e-10
  13      0.17053177902097
  14    0.0052205237766874
  15      0.01728587499606
  16    -1.7567456807983e-09
  17     0.032812589463923
  18    2.0442489731466e-10
  19     0.024615064200038
  20    -0.083880652230758
  21    8.9975135423545e-10
  22     0.031274366546582
  23    -1.5337596688223e-10
  24    -0.077502924061396
  25     -0.30486153752846
  26     -0.13349203892654
  27      0.87565815680728
  28    -0.071878488840997
  29    -1.6566779951019e-09
  30     0.082005882137224
  31      0.15749749472416
  32    2.9934461652887e-09
  33     -0.51044629757861
  34      0.19462267013454
  35    2.3637672780282e-10
  36     -0.10265233685458
  37      0.20704800102657
  38    -0.050324729977427
  39    1.3585785060754e-09
  40      0.31701933906367
  41    -3.660824907372e-10
  42    -0.096911257332472
  43     -0.14311980336926
  44    -2.9325763404379e-09
  45      0.43494830780806
  46    3.1415345475215e-09
  47     -0.09427989222517
  48     -0.43063801725282
  49    -0.099379934592172
  50    -0.0039360417137295
  51    -3.8407919334428e-09
  52    -0.092576448932303
  53       -0.138733915397
  54    -3.2180837736409e-10
  55     -0.15217517032394
 Sym= A
 Ene=              11
 Spin= Alpha
 Occup=    0.00000
   1    -2.9845137980272e-09
   2    -7.4172552017909e-09
   3    1.1648528029584e-08
   4    -3.6613122934964e-08
   5    -1.2958407024436e-09
   6     -0.18218644276454
   7    -4.0302799723575e-09
   8    3.7245418558618e-09
   9    -0.075513955545569
  10    1.1686071358254e-08
  11    3.5352520571435e-09
  12     -0.03291170204844
  13    1.3940608790263e-08
  14    2.0880015995885e-10
  15    1.6959741856986e-09
  16     -0.12812407453855
  17    1.8537219097254e-09
  18      0.51736406141633
  19    -2.7063254318093e-09
  20    -3.5276104119542e-09
  21     -0.13340015239395
  22    -3.1799242649804e-09
  23      0.43297612252995
  24    -2.073795566176e-09
  25    -5.3940580378639e-09
  26    2.7140315920762e-09
  27    9.6196556018063e-09
  28    -5.1402648588234e-09
  29     -0.27108084300447
  30    2.5620456971207e-09
  31    -2.1143620015035e-09
  32       0.2274668558075
  33    9.4867252419497e-09
  34    -1.3835086272726e-09
  35      0.12326085939781
  36    1.1092401703891e-09
  37    4.2206690336879e-10
  38    3.4839848776722e-10
  39     0.076921613146867
  40    -7.4336340282474e-09
  41      0.14289860176813
  42    -4.856105195113e-09
  43    -7.0745462923486e-09
  44      0.24753431436553
  45    7.6403925442471e-09
  46     0.092341674500394
  47    -4.2893025721015e-09
  48    2.5820325183887e-08
  49    4.576989691186e-09
  50    -1.2928982907333e-08
  51     0.082119650463344
  52    4.7716507301836e-09
  53    -6.5030596894689e-09
  54     0.055792722978372
  55    9.3758273990433e-09
 Sym= A
 Ene=              12
 Spin= Alpha
 Occup=    0.00000
   1    -3.1476621440601e-09
   2    -8.3722957555328e-09
   3    -1.1967890991512e-08
   4    -5.7423093810224e-08
   5     1.10841160934e-09
   6    -0.016385182768907
   7    -5.4398034205181e-09
   8    1.0034176318639e-08
   9     -0.24025142170057
  10    2.2888658218709e-08
  11    9.0486129895915e-09
  12     -0.50696103821936
  13    9.8759546166101e-09
  14    -1.860547070052e-09
  15    5.4160477200314e-10
  16     0.063484384534177
  17    -1.8481551237146e-10
  18     -0.36587820289801
  19    -2.6867960788983e-09
  20    -7.5321483034619e-09
  21     0.051068636445079
  22    2.5932460187034e-09
  23     -0.17407412367219
  24    5.340767401973e-10
  25    1.4524199206863e-09
  26    2.4438874241147e-08
  27    2.4566276098527e-08
  28    6.2180248461857e-09
  29     -0.27686498534837
  30    -3.5030664763363e-09
  31    -8.976788521638e-09
  32     0.045158962136939
  33    3.1525554424398e-08
  34    -3.1040789945822e-09
  35      0.76718096636949
  36    1.5719894870113e-08
  37    -4.1597993213527e-10
  38    -2.4868283117097e-09
  39      0.38510410244611
  40    3.727804784609e-09
  41      0.41585705781648
  42    1.0713857114044e-08
  43    1.8150090998449e-09
  44      0.14277881311319
  45    -8.5122521622452e-09
  46      0.25204819787374
  47    -6.6730084894885e-10
  48    2.6686145286189e-08
  49    2.7414390676345e-09
  50    6.3875031030583e-09
  51      0.17435532559968
  52    7.3775441078035e-10
  53    -5.8073801759937e-09
  54      0.11222025327532
  55    1.5707003699719e-09
 Sym= A
 Ene=              13
 Spin= Alpha
 Occup=    0.00000
   1    2.3999635501062e-09
   2    2.2136069592219e-09
   3    -6.4152854657963e-08
   4    -9.2684511437953e-08
   5    -2.7967270592534e-09
   6     -0.10826285442769
   7    -3.1534422699817e-09
   8    1.7396953037647e-08
   9      0.43984942419532
  10    4.6377161626804e-08
  11    8.4659150215876e-09
  12      0.22478221904558
  13    1.9179780841303e-08
  14    2.3863871040327e-09
  15    -1.6754863593315e-09
  16    0.0055204095434216
  17    8.1434922384641e-10
  18    -0.059077061311834
  19    -1.0453236164337e-08
  20    -9.6401327688335e-09
  21       -0.195728967461
  22    4.3391994542197e-09
  23     -0.20254231170432
  24    3.0929853596053e-09
  25    7.6644092408653e-09
  26    4.1479613570694e-08
  27    4.9305014317301e-08
  28    2.708371046088e-09
  29      -0.6182954942346
  30    -2.2827189503402e-09
  31    2.4636492314236e-09
  32      0.28850745168377
  33    7.3156089219238e-08
  34    4.0974466132155e-10
  35      0.06542323842016
  36    2.3343777431965e-08
  37    -8.223068108604e-10
  38    -5.6833658307242e-09
  39     -0.68858160061473
  40    6.337059461983e-09
  41    0.0045346974176492
  42    1.7525239688865e-08
  43    1.4548517997965e-08
  44     -0.30662634535094
  45    -5.4799346409183e-09
  46    -0.048641045851724
  47    1.0858918192451e-09
  48    4.946861801611e-08
  49    2.3652628490424e-09
  50    1.6683011461928e-09
  51     -0.12485793625537
  52    -2.6528028385139e-09
  53    -1.7707108576789e-08
  54    -0.029276764744755
  55    5.6477734243329e-09
 Sym= A
 Ene=              14
 Spin= Alpha
 Occup=    0.00000
   1    2.7346080023171e-07
   2    3.072229300446e-07
   3    -6.3002931312402e-06
   4    -8.2549762238714e-06
   5    1.0553978384248e-07
   6      0.37480508705003
   7    -6.233225837643e-07
   8    9.8122952024241e-07
   9     -0.69638538881563
  10    4.6121770203959e-06
  11    1.4547370311302e-06
  12     -0.32291774046844
  13    9.2878543962025e-07
  14    4.1146724591267e-07
  15    -1.4636763795344e-07
  16    -0.059604682390912
  17    4.7842607851424e-07
  18     0.020949900113831
  19    -1.4438678206185e-06
  20    -1.0587049495414e-06
  21      0.23011302370883
  22    3.4936346838101e-08
  23     0.069076470620605
  24    4.2989451115419e-07
  25    7.9963205042494e-07
  26    2.9292969608092e-06
  27    4.8428955750771e-06
  28    7.3562918611795e-08
  29     -0.65943737012149
  30    2.5877629727269e-08
  31    -6.7797832334707e-08
  32       1.6832306820502
  33    7.3463920790177e-06
  34    -2.9944889836525e-08
  35     -0.30270030326664
  36    3.4696349847253e-06
  37    -1.9297703370313e-07
  38    -8.9401604759549e-08
  39       0.3845444157741
  40    -3.1043306739145e-07
  41      -0.2120790986015
  42    1.5473058291975e-06
  43    1.9058115341766e-06
  44     -0.17343542080265
  45    -1.6084903614865e-07
  46      0.27074739792246
  47    7.4259857901732e-07
  48    5.4491713028628e-06
  49    -3.2658057459279e-07
  50    -2.2572192939675e-07
  51     0.049180791185899
  52    9.2029583922507e-07
  53    -2.1759156197195e-06
  54     -0.54268043076024
  55    -1.5909593663311e-06
 Sym= A
 Ene=              15
 Spin= Alpha
 Occup=    0.00000
   1    2.0065824757766e-06
   2    3.0211536467833e-06
   3    -4.4107254447944e-06
   4    -1.1727828863356e-05
   5    -1.2712720985294e-06
   6     -0.64959040425475
   7    -1.8432355097462e-07
   8    8.660653090866e-06
   9       1.4658737955183
  10    7.536420990133e-06
  11    1.0157562105825e-05
  12     -0.25552366905161
  13    7.436889826053e-06
  14    -7.1473707703838e-07
  15    2.0461998426204e-06
  16    -0.033844840322496
  17    1.4800631530179e-06
  18      0.23160272077999
  19    -2.2056625662917e-06
  20    -5.8964815013864e-06
  21    -0.093042086403172
  22    -1.5600680698961e-06
  23     -0.59265080924863
  24    1.2105154501654e-06
  25    2.827979818209e-06
  26    -3.4313853463931e-07
  27    -3.2266946145806e-05
  28    4.834032353017e-06
  29    -0.069485188139914
  30    5.0487705870832e-06
  31    -9.1267939623104e-06
  32    -0.097478571322402
  33    9.0828523635918e-06
  34    -1.0182305253462e-05
  35     -0.37895411799634
  36    9.3724410120111e-06
  37    -4.7679547977935e-06
  38    -7.2882778445768e-06
  39     0.044779518040554
  40    9.2335123456782e-07
  41      0.22985955315975
  42    -3.0796135003574e-06
  43    -1.1045141267471e-05
  44      -0.8162899444839
  45    8.5241585516562e-06
  46      0.37624880681254
  47    -1.6004821239978e-05
  48    5.0801766870982e-05
  49    1.1437533778069e-05
  50    9.8010759261886e-08
  51     -0.10690337509912
  52    -7.4269450400902e-06
  53    -1.9801643743843e-05
  54     -0.37814610433142
  55    6.8846289933268e-06
 Sym= A
 Ene=              16
 Spin= Alpha
 Occup=    0.00000
   1     -0.00108610601839
   2    -0.0013822320199134
   3    -0.036950260919063
   4      0.33709196579728
   5     0.072931707785235
   6      0.16554824542872
   7      0.01842632028007
   8      0.13238516811675
   9      -0.8502807761234
  10    0.0045198950676027
  11     -0.91723160703527
  12       1.7250099064839
  13     0.016988019970036
  14    0.0025027267571407
  15     -0.01053775235895
  16     0.039766435653279
  17    -0.0072705117263223
  18      -0.1396891161328
  19    -0.0089047816736936
  20     0.037974381848491
  21      0.14341947534268
  22    -0.00011957710770945
  23     0.061005168672372
  24     0.020638521692404
  25     0.081329007332116
  26    -0.062317811148229
  27      -1.4649620103217
  28    0.0052788566674921
  29     -0.03722768052146
  30    -0.037752104388822
  31    -0.082313489045772
  32      0.52172180656685
  33      0.11152370593388
  34       0.3929872862429
  35      -1.4789565912104
  36    -0.034978829891651
  37     -0.03120465602445
  38    0.0090003807869893
  39      0.18171863787355
  40    -0.051384425604861
  41      0.14352688619761
  42    -0.0055977234275229
  43     0.084637900549812
  44    -0.045185678435924
  45    -0.067827925686951
  46      0.16031893291964
  47    -0.00073798230678456
  48      0.52516229658426
  49      0.68504051377318
  50    -0.010815544895876
  51     0.063748380907197