[Molden Format]
made by pyscf v[2.13.1]
[Atoms] (AU)
O   1   8     0.21099695469856     0.00000000000000     2.15462460678861
N   2   7    -0.44776862100326     0.00000000000000    -0.03589262653049
H   3   1     1.18163474748449     0.00000000000000    -1.17386889907833
[GTO]
1 0
 s    8 1.00
                 11720  0.00070964594651845
                  1759  0.0054672722921914
                 400.8   0.027823118610189
                 113.7    0.10474773971146
                 37.03    0.28292084635691
                 13.27    0.44849523869833
                 5.025    0.27081688521277
                 1.013    0.01545029160744
 s    8 1.00
                 11720  -0.00031444341168873
                  1759  -0.0024821376810179
                 400.8  -0.012316355381583
                 113.7  -0.050538917343672
                 37.03   -0.13938490331632
                 13.27   -0.32507749481778
                 5.025   -0.22984830758785
                 1.013     1.0953793467883
 s    1 1.00
                0.3023                   1
 s    1 1.00
               0.07896                   1
 p    3 1.00
                  17.7   0.062679166281506
                 3.854    0.33353656587936
                 1.046    0.74123964163973
 p    1 1.00
                0.2753                   1
 p    1 1.00
               0.06856                   1
 d    1 1.00
                 1.185                   1
 d    1 1.00
                 0.332                   1

2 0
 s    8 1.00
                  9046  0.00069961741342552
                  1357  0.0053860546299287
                 309.3   0.027391021189057
                 87.73    0.10315059198201
                 28.56    0.27857066331743
                 10.21    0.44829484945412
                 3.838    0.27808592839527
                0.7466   0.015431561233271
 s    8 1.00
                  9046  -0.00030499009595337
                  1357  -0.0024080263785077
                 309.3   -0.01194444872518
                 87.73  -0.048925992909017
                 28.56   -0.13447272472496
                 10.21   -0.31511257770011
                 3.838   -0.24285783254964
                0.7466     1.0943822068542
 s    1 1.00
                0.2248                   1
 s    1 1.00
               0.06124                   1
 p    3 1.00
                 13.55   0.058905676772132
                 2.917    0.32046110671427
                0.7973    0.75304206179207
 p    1 1.00
                0.2185                   1
 p    1 1.00
               0.05611                   1
 d    1 1.00
                 0.817                   1
 d    1 1.00
                  0.23                   1

3 0
 s    3 1.00
                 13.01   0.033498726389998
                 1.962    0.23480080117413
                0.4446     0.8136829578829
 s    1 1.00
                 0.122                   1
 s    1 1.00
               0.02974                   1
 p    1 1.00
                 0.727                   1
 p    1 1.00
                 0.141                   1

[5d]
[7f]
[9g]

[MO]
 Sym= A
 Ene=               0
 Spin= Alpha
 Occup=    1.00000
   1    -0.0044875851944833
   2     0.039029153235192
   3      0.11111102264052
   4     0.091559063492345
   5      -0.2555723318161
   6    1.1577369505953e-14
   7      0.37465761190051
   8     -0.15666413479026
   9    6.3796887411838e-15
  10      0.18374423489246
  11    -0.019104478190585
  12    1.7710369695547e-15
  13    0.0030727950173055
  14    -0.017121387229412
  15    0.0099420588165481
  16    -6.3271047495165e-16
  17    0.0030862397281152
  18    -2.0623768919698e-16
  19    -0.0066269712983864
  20     0.014101928488534
  21    -2.8599728786994e-16
  22    0.0011641812780589
  23    8.9296582338457e-17
  24     -0.00288332824736
  25      0.11687480135162
  26      0.20437000867121
  27    0.0043711895928563
  28     -0.38071382310913
  29    9.3349607348337e-15
  30     -0.22326761212887
  31     -0.18460977980835
  32    5.273366862953e-15
  33     -0.10978701112436
  34    -0.022100384406139
  35    -1.0064369569843e-15
  36      -0.0186512980928
  37    0.0018223886530885
  38    -0.031419429925187
  39    6.6680326849827e-16
  40    -0.017969308618404
  41    4.4140318964304e-16
  42    0.0011118827797144
  43    -0.0062271529337939
  44    4.1610277563481e-16
  45    -0.0074527949990698
  46    2.696459707808e-16
  47     -0.04080345734305
  48    -0.0047056505490967
  49    -0.0013643650109536
  50    -0.0045964338650744
  51    2.6560119205727e-16
  52    -0.0094544085557739
  53    -0.0087823348825375
  54    3.7333586058758e-16
  55    -0.0051394524390077
 Sym= A
 Ene=               1
 Spin= Alpha
 Occup=    1.00000
   1    -0.00052572879309731
   2    -0.039946539959432
   3    -0.070314972828548
   4    -0.049474219713674
   5      0.44204857190107
   6    -4.2089636948923e-11
   7     -0.19101547224054
   8      0.32078073661682
   9    -2.5558047573883e-11
  10     -0.11123656593959
  11      0.12160740230879
  12    -2.858043758993e-12
  13    -0.019833679199053
  14    0.0032864987492248
  15    0.0018684954089006
  16    2.0523016983198e-12
  17    0.00029312445395663
  18    5.4371628856882e-13
  19    0.00063257755911973
  20    0.0013334772776512
  21    2.3363169204964e-12
  22    -0.0010718343468308
  23    4.9978511178423e-13
  24    0.00060356789434546
  25      0.16259861569608
  26      0.29979074193968
  27      0.18188614089349
  28     -0.37940213203048
  29    -3.4986186590166e-11
  30     0.051346958058282
  31     -0.22248576926354
  32    -1.8228705600855e-11
  33    -0.001701781555463
  34    -0.071015475379721
  35    -1.4087260732127e-12
  36    0.0021877292764169
  37    -0.0037970567666235
  38     0.026215204776907
  39    -2.6777662695406e-12
  40    -0.012391430547557
  41    -1.6178589641663e-12
  42    -0.0017749797294858
  43    0.0022988147248769
  44    1.6095353125065e-13
  45    0.0022793071897826
  46    -9.7326257542715e-13
  47     -0.31526096975988
  48     -0.20649657859152
  49    -0.039002059517113
  50    0.0052369929399057
  51    -9.9502274371892e-13
  52    -0.0096771071457009
  53    -0.015091221339445
  54    -2.5993651418175e-13
  55     0.014888247003499
 Sym= A
 Ene=               2
 Spin= Alpha
 Occup=    1.00000
   1    1.2214204910161e-13
   2    -4.9456101879794e-12
   3    -9.8454945887517e-12
   4    -6.9727866075712e-12
   5    2.9917418204578e-11
   6      0.48293643377382
   7    -2.3258693485619e-11
   8    2.2952386599619e-11
   9      0.29325120273613
  10    -1.2207737694547e-11
  11    9.9214188374408e-12
  12     0.032802356604109
  13    -1.43735671147e-12
  14    5.4580075759797e-13
  15    5.5357100435987e-13
  16    -0.023547370697403
  17    1.2259038170777e-13
  18    -0.0062388229740347
  19    -7.7489554851151e-15
  20    3.9571779690449e-13
  21    -0.026807233320924
  22    -4.7753187166129e-14
  23    -0.0057340089517254
  24    2.252122168625e-13
  25    1.7258135587693e-11
  26    2.8461262184118e-11
  27    1.687194826456e-11
  28    -3.4486987094967e-11
  29      0.40143086921762
  30    1.1505461592833e-11
  31    -1.9332787290722e-11
  32      0.20915817645098
  33    1.9596194803388e-12
  34    -5.7469605226686e-12
  35     0.016157129053395
  36    6.2253955514262e-13
  37    2.5329335517753e-13
  38    2.3819296583698e-12
  39      0.03072491661808
  40    -1.2453179376989e-12
  41     0.018563257983275
  42    -2.961676642266e-13
  43    1.6870633084441e-13
  44    -0.0018467998350396
  45     3.07193832143e-13
  46     0.011167004887345
  47    -2.9712737170526e-11
  48    -1.8955488080641e-11
  49    -3.394479406029e-12
  50    6.0125688337663e-13
  51     0.011418005103861
  52    -8.6965043034357e-13
  53    -1.0263404844606e-12
  54    0.0029799986058222
  55    8.9983863696978e-13
 Sym= A
 Ene=               3
 Spin= Alpha
 Occup=    1.00000
   1    0.00033828765728272
   2     -0.11158629198735
   3     -0.25954737842852
   4     -0.14251400652756
   5     -0.32474169593321
   6    -7.8201193623648e-12
   7     -0.32268369655116
   8     -0.17965910126779
   9    -4.7494039538463e-12
  10     -0.11198439826315
  11    -0.026716865006571
  12    -5.307179196117e-13
  13     0.018498906778169
  14     0.017329640957804
  15     0.015187215917099
  16    3.8126308077727e-13
  17    0.0035384675738339
  18    1.0099091334295e-13
  19    0.0044959665897162
  20    0.0069606172648773
  21    4.3438172083471e-13
  22    0.0036820803027112
  23    9.301246020057e-14
  24     0.049125923215971
  25      0.36172233103874
  26      0.30577493830985
  27     0.068914860519029
  28     0.034835796863449
  29    -6.5002597235608e-12
  30      0.17173779979168
  31      0.00937750616514
  32    -3.3862951834823e-12
  33     0.074208081688837
  34      0.02113183601053
  35    -2.6193721027281e-13
  36     0.021049197215773
  37     0.018416465951633
  38    -0.0012994558607473
  39    -4.9750751512771e-13
  40    -0.0027426195293219
  41    -3.0058226743965e-13
  42    0.0065776940635401
  43     0.012083956417376
  44    3.0393002666908e-14
  45    -0.0083426763557572
  46    -1.806446053028e-13
  47      0.10438595066237
  48    -0.0044777085954119
  49    0.00050780238286789
  50    -0.013087476453574
  51    -1.8491971096457e-13
  52     0.010658427282453
  53     0.011646274126458
  54    -4.8198270784119e-14
  55    -0.014177004823728
 Sym= A
 Ene=               4
 Spin= Alpha
 Occup=    1.00000
   1    0.0034255100659939
   2      0.21618511091796
   3      0.26142073238052
   4     0.006141321692277
   5     -0.25024262704766
   6    -5.2564880995022e-12
   7     -0.11699364650684
   8     -0.15688678992628
   9    -3.1916791253825e-12
  10    -0.066607494524025
  11    -0.017925302624158
  12    -3.5681173618173e-13
  13    -0.00048850248844479
  14    0.0013331625650771
  15     0.012712039140851
  16    2.5631306867793e-13
  17     0.001763856818394
  18    6.7923761079373e-14
  19    -0.0073129241295414
  20      0.01371237479183
  21    2.9167859506481e-13
  22    -0.0017847159810453
  23    6.2368012261093e-14
  24    0.0084974858088225
  25     -0.17364762949027
  26     -0.22600791589068
  27    -0.022615577684301
  28     -0.13039212904436
  29    -4.3690976023849e-12
  30      0.38816687601841
  31    -0.0082615913108395
  32    -2.276726123931e-12
  33      0.05598910642091
  34    0.0074039355654096
  35    -1.7565742867786e-13
  36    0.0008446717883058
  37     0.029965793815542
  38     0.016135975855184
  39    -3.3442167607602e-13
  40    -0.0087774334776081
  41    -2.0206696715388e-13
  42    -0.025728705416924
  43    -0.021689580187319
  44    2.0004594176999e-14
  45     0.017966991419708
  46    -1.21523872531e-13
  47     -0.30354653992742
  48    -0.078052792222493
  49    -1.5118019975103e-05
  50     0.026597017406152
  51    -1.2427959368451e-13
  52    -0.013158699517908
  53     0.011482948925131
  54    -3.2620586106455e-14
  55    -0.014762868729606
 Sym= A
 Ene=               5
 Spin= Alpha
 Occup=    1.00000
   1    0.0040430297514578
   2      0.41885210443363
   3      0.48688006506858
   4     0.079848183222956
   5      0.12971339226639
   6    2.3251525615168e-12
   7     0.019551987652128
   8     0.080801277385133
   9    1.4114258849273e-12
  10    -0.0049567912455624
  11     0.010601994066433
  12    1.5771709898315e-13
  13    0.0020601340297702
  14    0.0077340671228471
  15    -0.0012387805438821
  16    -1.1338712082635e-13
  17    -0.004264829558501
  18    -3.0067829253201e-14
  19     0.011503858208449
  20    -0.0037058351602095
  21    -1.2895442143863e-13
  22    -0.0011029873167693
  23    -2.7432675708248e-14
  24     0.024202934232114
  25      0.18301056020907
  26     0.038407643393238
  27    -0.023914729206239
  28      0.11950853671936
  29    1.932639739868e-12
  30    -0.0028755419744932
  31     0.003259780588633
  32    1.0071395271632e-12
  33    -0.058242058987667
  34    -0.0027068028745419
  35    7.7763898220651e-14
  36    -0.015401652939157
  37    0.0084234755093482
  38      0.01213774500458
  39    1.4791015196108e-13
  40    0.0053050782153248
  41    8.9377785921084e-14
  42    -0.0058799406852903
  43    -0.0010926779904053
  44    -8.471666585398e-15
  45    -0.0098104496618684
  46    5.3715456057352e-14
  47       0.1305876559135
  48    0.0059826884139294
  49    -0.00022441156624272
  50    -0.014208578787482
  51    5.5018178794007e-14
  52     0.011708132649455
  53    0.0055077261143935
  54    1.4530067589713e-14
  55    0.0011064664585671
 Sym= A
 Ene=               6
 Spin= Alpha
 Occup=    1.00000
   1     -0.09702421087296
   2    -0.009669692539123
   3    0.00072600148460422
   4    0.0067687495327302
   5     0.012820517011196
   6    2.9334319052978e-13
   7     0.015336622075809
   8    0.0068008178116871
   9    1.7548196048474e-13
  10    0.0049315447625991
  11    0.00081207775546963
  12    1.7926799471735e-14
  13    -0.0014561306628276
  14    -0.0018357361678214
  15    -0.0011715642316524
  16    -1.5077920099759e-14
  17    -9.4342649622359e-05
  18    -4.0388738666717e-15
  19    -0.0013519484429146
  20    -0.0010537928647744
  21    -1.336449313737e-14
  22    -0.00036856913679978
  23    -2.7896358966036e-15
  24      0.99954309196639
  25    -0.0068403701731435
  26    -0.035229407501975
  27    -0.010035271399138
  28    -0.0018028402034867
  29    2.4385344415687e-13
  30    -0.0090870877950369
  31    -0.0061493966307422
  32    1.3060461492947e-13
  33    -0.0037210647716656
  34    -0.0027700825651711
  35    1.1382781977506e-14
  36    -0.00016373864765405
  37    -0.00037191496345023
  38    -0.00042748502619452
  39    1.8819796283182e-14
  40    0.00036670655586491
  41    1.131689943516e-14
  42    -0.0020240232466719
  43    -0.0010505344635823
  44    1.2448954634832e-15
  45    -0.00011291274016402
  46    7.8932824453917e-15
  47    -0.0060140646085358
  48     0.013713972160833
  49      0.00149586679555
  50    0.0018215547477504
  51    6.8139597308494e-15
  52    -0.0012017545880519
  53    -0.0055398576585657
  54    1.3930348704887e-15
  55    0.0040159120012058
 Sym= A
 Ene=               7
 Spin= Alpha
 Occup=    1.00000
   1        1.001387892854
   2    0.0063260839357331
   3    -0.045524829967957
   4    -0.011035953480271
   5    -0.00074016435698956
   6    -4.1073020092638e-14
   7    0.00020467519256198
   8    0.0042005359767091
   9    -2.5310054253827e-14
  10     0.019122433819915
  11    0.00056968248349678
  12    -3.0697586468883e-15
  13    0.0015763182005776
  14    4.6903677639849e-05
  15    3.0959882593816e-05
  16    1.9457835364458e-15
  17    3.4205388750431e-05
  18    4.8512972910768e-16
  19    -0.0042064434577157
  20    -0.0019796274402591
  21    2.6436659949824e-15
  22    -0.00016502154642937
  23    5.5411134827527e-16
  24     0.096443385083776
  25    -0.0043243687534188
  26     0.023049865599381
  27    0.0065150003323389
  28    -0.00017907823345782
  29    -3.4154255169814e-14
  30    -0.0014255840870039
  31    0.0058635045461893
  32    -1.7365666145617e-14
  33     0.021073875823445
  34    -4.7956545080347e-05
  35    -1.2226735160544e-15
  36    0.0024527661214729
  37    -0.00047050793686309
  38    -0.00069048616120242
  39    -2.6068150355428e-15
  40    0.00014682609637032
  41    -1.573947980207e-15
  42    0.0052731405956239
  43    0.0040453001754528
  44    4.5551756220057e-16
  45    0.00078948443195684
  46    -8.1649117552853e-16
  47    -0.001349119307346
  48    0.0052659391064205
  49    -0.00019971177919567
  50    0.00057230871287047
  51    -9.8510764447135e-16
  52    -0.00089606246818788
  53    -0.0020982699115573
  54    -2.8102735079912e-16
  55    0.00045731575563877
 Sym= A
 Ene=               8
 Spin= Alpha
 Occup=    0.00000
   1    2.7940016506116e-15
   2    -9.7336352467338e-15
   3    -7.9656646588519e-14
   4    -7.4363248386876e-13
   5    -1.6066330265514e-15
   6     -0.48746355154784
   7    2.5584617898283e-14
   8    1.2781051927531e-14
   9     -0.37485948341899
  10    1.0072937296288e-13
  11    7.339937125168e-14
  12      -0.1717040371613
  13    9.0371180408291e-14
  14    8.9141251472026e-16
  15    1.2182418118346e-14
  16    -0.0032708911247505
  17    -7.9513613113952e-15
  18    -0.0034356842885938
  19    -1.933814293036e-14
  20    -2.7399274211573e-15
  21    0.0054370192163983
  22    -7.459210336532e-15
  23    -0.0070752021149481
  24    3.273450097205e-15
  25    2.8935552604084e-14
  26    1.5910553907399e-13
  27    6.2793298733951e-13
  28    1.3526790161289e-14
  29      0.53273632062695
  30    -2.2569085110913e-15
  31    3.6059658235713e-14
  32      0.41110126738911
  33    9.3048223124336e-14
  34    8.8366553008677e-14
  35      0.17168055746598
  36    4.2489713492093e-13
  37    1.9704598206811e-15
  38    2.4201618442392e-16
  39    -0.010700551206054
  40    -5.8465253539465e-15
  41     0.019578058044044
  42    -6.8552533680346e-15
  43    1.0423808356875e-14
  44    -0.006668745943287
  45    1.4610866395358e-15
  46     0.022390688612922
  47    1.2743707259424e-15
  48    -5.4323409314434e-15
  49    -7.048002392949e-14
  50    -2.9332469573876e-16
  51     0.021754265091072
  52    4.4281961457378e-15
  53    2.1638380444908e-16
  54     0.038810806135187
  55    1.1020824124078e-14
 Sym= A
 Ene=               9
 Spin= Alpha
 Occup=    0.00000
   1    -1.4673750250201e-12
   2    -2.5436753033675e-11
   3    -8.6888271007545e-11
   4    -3.4875931744468e-10
   5    6.0105487726928e-12
   6      0.24913009927157
   7    1.9088211239991e-11
   8    1.1554532062799e-11
   9     -0.03210514452042
  10     5.10877348811e-11
  11    1.976730994173e-11
  12     -0.61682983703231
  13    1.1840082782349e-10
  14    3.6370157563133e-12
  15    6.067686232707e-14
  16    -0.030553338302095
  17    5.8460204998453e-12
  18     0.087774776710467
  19    -3.905189879902e-13
  20    -4.8360502514437e-12
  21     0.018671578555583
  22    5.812799970211e-12
  23      0.11323491943323
  24    8.4234063478983e-13
  25    1.8726098476798e-11
  26    8.5748535201725e-11
  27    3.4802215337299e-10
  28    1.1719540089933e-11
  29     0.037390081377885
  30    1.5696779420848e-11
  31    2.1646897046049e-11
  32     -0.32304529190198
  33    7.380068249205e-11
  34    6.5800763575603e-11
  35      0.10617125799054
  36    1.9445569729508e-10
  37    -1.1481672729419e-11
  38    -4.0093757863471e-13
  39    -0.043731594195216
  40    -1.5696733680478e-11
  41      0.25030666554506
  42    1.9613863535079e-12
  43    6.7670562110021e-12
  44    -0.056808366385956
  45    -1.9727174884348e-11
  46      0.28607997108581
  47    -8.4106806561484e-12
  48    1.9714329807855e-11
  49    -2.11096098258e-11
  50    1.2863113534193e-12
  51     0.064137293261853
  52    1.6335777954097e-12
  53    -3.619689373829e-12
  54      0.65441124877399
  55    1.5266722577987e-11
 Sym= A
 Ene=              10
 Spin= Alpha
 Occup=    0.00000
   1     0.021317954386852
   2      0.20659918165796
   3      0.50621770280658
   4    -0.075287657100282
   5     -0.10381335596474
   6    2.9567182567373e-11
   7     -0.25224829965845
   8     -0.10435484615651
   9    -1.8904846649337e-12
  10      -0.3035651677698
  11      0.29764800200715
  12    -6.7360229569734e-11
  13      -0.2309160632343
  14    -0.053541595038692
  15    -0.0036438789480177
  16    -5.5239699688555e-12
  17    -0.083182649646974
  18    9.6805666361005e-12
  19    -0.093201726447987
  20     0.027886421436012
  21    -1.1109931987639e-12
  22     -0.10039050222904
  23    1.1940744687452e-11
  24    -0.022385965931894
  25     -0.23037450350714
  26     -0.58339834863258
  27      0.19296690266609
  28      -0.0938181671852
  29    1.0828088597003e-12
  30      -0.1752788344375
  31     -0.14198284386025
  32    -3.8859978136313e-11
  33     -0.42436519438549
  34      -0.4052272356737
  35    1.2258683631537e-11
  36     -0.16152035368052
  37      0.15737125021298
  38    0.0024894234798691
  39    -9.1682983555786e-12
  40      0.24289585954759
  41    3.0774538634611e-11
  42     0.069647730244944
  43    -0.0059809207571624
  44    -1.0275088689332e-11
  45      0.31564077289794
  46    3.3745884219103e-11
  47      0.13570227953148
  48    -0.048045478959506
  49    -0.061840871649553
  50    -0.013119420831816
  51    7.5762870909764e-12
  52    -0.009112623106035
  53    -0.078706336182264
  54    7.5265807615679e-11
  55    -0.018875366364381
 Sym= A
 Ene=              11
 Spin= Alpha
 Occup=    0.00000
   1    -8.9302379136115e-13
   2    -2.2390213399661e-13
   3    1.8114504940038e-11
   4    2.5978516160706e-10
   5    4.0780243951291e-12
   6     0.011361123044233
   7    9.0537337468773e-12
   8    2.1367673386264e-12
   9    -0.020620869210464
  10    -8.4841631335766e-12
  11    -4.342068457353e-11
  12      0.25828992065243
  13    -6.7458992530861e-11
  14    2.7061283378464e-12
  15    -5.8652266630607e-13
  16     -0.27706978376807
  17    2.6307036126107e-12
  18    -0.073925316272536
  19    8.6046381053546e-12
  20    8.549799967926e-13
  21     -0.37131677877525
  22    4.5633037870287e-12
  23     -0.11364602402259
  24    1.6826965985663e-12
  25    8.1613022991111e-12
  26    -7.8085420496945e-12
  27    -2.7032613895138e-10
  28    1.1546649536689e-12
  29     -0.60804688867252
  30    3.6074584385432e-12
  31    -2.6254340600257e-12
  32    -0.022558534888368
  33    -1.5860750889691e-11
  34    -1.0290919525624e-11
  35      0.54980596530681
  36    -1.2584772153006e-10
  37    -6.3013516208641e-12
  38    8.6876578594108e-13
  39     -0.17702710859902
  40    -1.0445354002789e-11
  41      0.14518447236419
  42    -8.2466769820082e-12
  43    -4.5081305911891e-12
  44     -0.15675793157405
  45    -1.4262100744807e-11
  46    -0.032857532471604
  47    -7.3972500644948e-12
  48    -1.2673845374413e-11
  49     1.99607918925e-11
  50    6.6633393970197e-14
  51    -0.012862226601845
  52    -3.2046092783755e-13
  53    1.0885828216666e-11
  54     0.007476384077699
  55    -9.301443179671e-12
 Sym= A
 Ene=              12
 Spin= Alpha
 Occup=    0.00000
   1    5.2850255008098e-13
   2    -5.1297622193169e-14
   3    -1.3868028135971e-11
   4    -1.8384591600692e-10
   5    -4.3334380313072e-12
   6     -0.10636669070618
   7    -6.557886630649e-12
   8    -5.668090081325e-14
   9     -0.51901830551759
  10    6.1308863900437e-12
  11    3.0275067004211e-11
  12     -0.60572834357586
  13    4.7645245102744e-11
  14    -2.0296181479369e-12
  15    1.8896825618077e-13
  16    -0.054100832060892
  17    -1.9258357750336e-12
  18      0.21725352866519
  19    -6.4313653869078e-12
  20    -7.9044742151552e-13
  21      0.18475540042962
  22    -3.1787095948634e-12
  23      0.25449512266192
  24    -8.611645748697e-13
  25    -4.3207709848903e-12
  26    9.2830665432361e-12
  27    1.9126999919848e-10
  28    1.7079447571535e-12
  29     0.099502643727316
  30    -5.1283431373055e-12
  31    3.3776723745866e-12
  32     0.086652911184645
  33    1.2155534921365e-11
  34    7.010018632772e-12
  35      0.57841839156605
  36    9.1568194145172e-11
  37    4.8750164636271e-12
  38    -4.3569898387965e-13
  39      0.74783287215863
  40    8.2066606888722e-12
  41    -0.018060324751613
  42    6.0042483110405e-12
  43    3.8720170000407e-12
  44      0.66996147819837
  45    1.0761951196595e-11
  46    -0.025634698058142
  47    2.7920228835601e-12
  48    4.3404078022932e-12
  49    -1.3245479402859e-11
  50    -4.357450443363e-13
  51    -0.038127579471739
  52    6.6613446194121e-13
  53    -8.1047192515042e-12
  54      0.29310422005925
  55    3.4781396162976e-12
 Sym= A
 Ene=              13
 Spin= Alpha
 Occup=    0.00000
   1    -5.7555203745776e-13
   2    -4.5784967166436e-13
   3    8.3993902675206e-12
   4    1.2380015596575e-10
   5    2.969166169926e-13
   6     -0.31993735363662
   7    4.2268518832852e-12
   8    2.1954185701905e-12
   9      0.27350284905756
  10    -3.5745769068655e-12
  11    -2.0725695487472e-11
  12       1.2113930633497
  13    -3.2812800827527e-11
  14    1.1375775774712e-12
  15    3.555794809653e-13
  16      -0.3367825451442
  17    1.0409675417068e-12
  18      0.15149734179341
  19    3.5666395079198e-12
  20    1.1976004764133e-12
  21     -0.27898737658302
  22     1.99690797469e-12
  23    -0.075324161707396
  24    5.7981175437813e-13
  25    2.8049381509954e-12
  26    -5.8020830119385e-12
  27    -1.2897771582305e-10
  28    -8.2484404097037e-13
  29      0.23273369152655
  30    2.3655041697216e-12
  31    -1.3862495727636e-12
  32       -0.486846343423
  33    -7.3016824401182e-12
  34    -5.4608605633829e-12
  35     -0.91641834394085
  36    -6.1117185956353e-11
  37    -2.717354153127e-12
  38    4.7532506667731e-14
  39     -0.08366683827273
  40    -5.3688457906086e-12
  41      0.21964795464765
  42    -3.8500404130752e-12
  43    -1.3344221190026e-12
  44     -0.15295079743045
  45    -6.6506728892069e-12
  46       0.2411493554229
  47    -2.3994296161042e-12
  48    -2.5935008224387e-12
  49    8.8232093854282e-12
  50    1.8645336185751e-13
  51    0.0098487015616708
  52    -3.6356534883077e-13
  53    4.9317963720257e-12
  54     -0.21058030157941
  55    -1.7629991954743e-12
 Sym= A
 Ene=              14
 Spin= Alpha
 Occup=    0.00000
   1    5.8765198928345e-13
   2    -9.6978916756194e-13
   3    -1.8846257283683e-11
   4    -2.248774370262e-10
   5    -4.1655963298882e-12
   6     -0.23396112853377
   7    -6.6719039173952e-12
   8    1.0640830876713e-13
   9     -0.10536817811973
  10    8.9934909264271e-12
  11    3.5719103938168e-11
  12    -0.057301647219151
  13    5.9260012643968e-11
  14    -2.0256946303347e-12
  15    7.8663685092476e-13
  16     0.024533994311549
  17    -1.9557519390364e-12
  18      0.13981467664951
  19    -6.9584007116536e-12
  20    -6.8081188663963e-13
  21      0.13358324730288
  22    -3.5150980179181e-12
  23     0.047083378893708
  24    -1.4120118695171e-12
  25    -6.0898613258092e-12
  26    9.7579249220378e-12
  27    2.322376618521e-10
  28    4.1442136629308e-13
  29     -0.79276616742325
  30    -3.4210637323473e-12
  31    1.9893222917454e-12
  32       1.6589839232307
  33    1.7137482305579e-11
  34    1.0795402117959e-11
  35     -0.69907035874976
  36    1.0979435842783e-10
  37    4.6860048775866e-12
  38    -9.9336254790638e-13
  39      0.20223810124999
  40    7.9036786655893e-12
  41     -0.13608741170376
  42    7.1904403323287e-12
  43    4.2549660331338e-12
  44     0.036175762402532
  45    1.0575915870158e-11
  46       0.3566455230404
  47    5.2278464265646e-12
  48    1.288723442024e-11
  49    -1.6966116113571e-11
  50    5.2075228285059e-13
  51     0.083570410002257
  52    -9.5506324478399e-14
  53    -9.3836522741776e-12
  54     -0.45404144199066
  55    9.1388906714922e-12
 Sym= A
 Ene=              15
 Spin= Alpha
 Occup=    0.00000
   1    2.9123168682231e-13
   2    7.7934057072629e-14
   3    -4.317096384002e-12
   4    -7.8770289883011e-11
   5    -7.7873475528844e-12
   6     -0.88853754033016
   7    -1.3131786357207e-12
   8    1.2827680182331e-11
   9         1.96375162969
  10    -1.9189772548295e-13
  11    9.9539189085313e-12
  12     -0.73824166240878
  13    2.0794477972962e-11
  14    -5.1872689394349e-13
  15    1.0353937151191e-13
  16      0.23015260982761
  17    -6.6861408010462e-13
  18    -0.074692769700259
  19    -7.4754709463533e-13
  20    -4.1930555711459e-12
  21     -0.33015903505341
  22    -2.3877914601652e-12
  23     -0.15131505116195
  24    -2.8961496347156e-13
  25    -1.5052337621188e-12
  26    6.6504882374503e-12
  27    8.4916041537165e-11
  28    2.7288430820966e-13
  29     0.039115638831649
  30    -1.3749673797366e-12
  31    -4.7583342379912e-12
  32      -1.1494617162774
  33    4.3945448761665e-12
  34    5.8672381870473e-12
  35       0.5750375415487
  36    3.6574266586198e-11
  37    6.5241614484766e-13
  38    5.1336735296082e-13
  39    -0.011159129496919
  40    3.1075384794174e-12
  41     0.084780598385071
  42    4.824751541055e-12
  43    -3.3010919922396e-12
  44      -0.5498623400084
  45    1.987243683075e-12
  46     -0.21506402022887
  47    1.2495687563985e-12
  48    -3.4614825468274e-12
  49    -7.196045936157e-12
  50    3.3214450201914e-13
  51     0.012915036376369
  52    5.101892835274e-13
  53    -4.2923348751829e-13
  54      0.31777262249403
  55    2.5424767915339e-12
 Sym= A
 Ene=              16
 Spin= Alpha
 Occup=    0.00000
   1    -0.0063632845346674
   2    -0.029073023609174
   3       0.1113913388443
   4       0.3602414779483
   5     -0.12444903288921
   6     0.047385739951533
   7    0.0044788439847304
   8     -0.15536093584985
   9     -0.48499717286911
  10     -0.10430484615315
  11      0.97168052520184
  12      0.75534095068561
  13      0.56154789841086
  14     0.007942973758314
  15     0.014231255809814
  16      0.25241984819105
  17      0.01051363956181
  18    -0.010946581997535
  19     0.020853164696082
  20     -0.02623213874645
  21      0.21227518430691
  22    -0.0024315967869094
  23      0.15041048495697
  24    0.00028002566135062
  25     0.024136427008781
  26      0.12989741774135
  27      0.96294453351974
  28    -0.023663572881255
  29     0.012461573283183
  30     0.058582133721459
  31     -0.05230482660048
  32      0.12785407793728
  33     -0.11573704326273
  34     0.056015846444206
  35     -0.69601516320271
  36     -0.88796901626295
  37    -0.0015578197586818
  38    0.0051686278753517
  39      0.21511488730978
  40    -0.028123697639375
  41    -0.045330509041354
  42    -0.040279465427558
  43     -0.11816936923325
  44       0.1472594207906
  45    -0.023163297397473
  46    -0.067645429562434
  47    -0.041119829112593
  48     -0.61483995326698
  49     -0.68440075834482
  50     0.010285994993916
  51     0.014347596523217
  52    -0.0011734932852191