[Molden Format]
made by pyscf v[2.13.1]
[Atoms] (AU)
O   1   8     0.21099695469856     0.00000000000000     2.15462460678861
N   2   7    -0.44776862100326     0.00000000000000    -0.03589262653049
H   3   1     1.18163474748449     0.00000000000000    -1.17386889907833
[GTO]
1 0
 s    8 1.00
                 11720  0.00070964594651845
                  1759  0.0054672722921914
                 400.8   0.027823118610189
                 113.7    0.10474773971146
                 37.03    0.28292084635691
                 13.27    0.44849523869833
                 5.025    0.27081688521277
                 1.013    0.01545029160744
 s    8 1.00
                 11720  -0.00031444341168873
                  1759  -0.0024821376810179
                 400.8  -0.012316355381583
                 113.7  -0.050538917343672
                 37.03   -0.13938490331632
                 13.27   -0.32507749481778
                 5.025   -0.22984830758785
                 1.013     1.0953793467883
 s    1 1.00
                0.3023                   1
 s    1 1.00
               0.07896                   1
 p    3 1.00
                  17.7   0.062679166281506
                 3.854    0.33353656587936
                 1.046    0.74123964163973
 p    1 1.00
                0.2753                   1
 p    1 1.00
               0.06856                   1
 d    1 1.00
                 1.185                   1
 d    1 1.00
                 0.332                   1

2 0
 s    8 1.00
                  9046  0.00069961741342552
                  1357  0.0053860546299287
                 309.3   0.027391021189057
                 87.73    0.10315059198201
                 28.56    0.27857066331743
                 10.21    0.44829484945412
                 3.838    0.27808592839527
                0.7466   0.015431561233271
 s    8 1.00
                  9046  -0.00030499009595337
                  1357  -0.0024080263785077
                 309.3   -0.01194444872518
                 87.73  -0.048925992909017
                 28.56   -0.13447272472496
                 10.21   -0.31511257770011
                 3.838   -0.24285783254964
                0.7466     1.0943822068542
 s    1 1.00
                0.2248                   1
 s    1 1.00
               0.06124                   1
 p    3 1.00
                 13.55   0.058905676772132
                 2.917    0.32046110671427
                0.7973    0.75304206179207
 p    1 1.00
                0.2185                   1
 p    1 1.00
               0.05611                   1
 d    1 1.00
                 0.817                   1
 d    1 1.00
                  0.23                   1

3 0
 s    3 1.00
                 13.01   0.033498726389998
                 1.962    0.23480080117413
                0.4446     0.8136829578829
 s    1 1.00
                 0.122                   1
 s    1 1.00
               0.02974                   1
 p    1 1.00
                 0.727                   1
 p    1 1.00
                 0.141                   1

[5d]
[7f]
[9g]

[MO]
 Sym= A
 Ene=               0
 Spin= Alpha
 Occup=    1.00000
   1    0.0035063032839149
   2      -0.1277269045109
   3     -0.22774434054658
   4     -0.12996285200357
   5     -0.30333376974175
   6    -8.5713519069252e-13
   7     -0.32164921923233
   8     -0.16439563593086
   9    -5.2066106533274e-13
  10     -0.13279417997364
  11    -0.0023199125945085
  12    -5.7469464862958e-14
  13    0.0053994170474165
  14    0.0087902887520975
  15     0.018238786833691
  16    4.181550400599e-14
  17    0.0052129696753437
  18    1.1075614526262e-14
  19    -0.0065701600919279
  20     0.014758453704877
  21    4.7590306265261e-14
  22    0.0014162718560595
  23    1.0175481321678e-14
  24    0.0057583368132361
  25     0.079214167710152
  26      0.11080010626147
  27     0.084022102365444
  28     -0.20734755043139
  29    -7.1226719031647e-13
  30      0.35391419136587
  31    -0.057332478464297
  32    -3.7104177199138e-13
  33      0.10353192028391
  34    0.0010531269675727
  35    -2.8917398930334e-14
  36     0.020494670016929
  37     0.025055312500908
  38     0.009868431245349
  39    -5.4511565602404e-14
  40    -0.012595836645149
  41    -3.2954006591584e-14
  42    -0.0094555849444811
  43    -0.0047774888582318
  44    3.2967186234986e-15
  45     0.010538829114635
  46    -1.9698754465048e-14
  47     -0.25510614466879
  48     -0.10399975609022
  49    -0.0092322388994928
  50        0.015501774852
  51    -2.0277366200962e-14
  52    -0.0089888214996481
  53    0.0080840601845976
  54    -5.4884347718103e-15
  55    -0.014689389762581
 Sym= A
 Ene=               1
 Spin= Alpha
 Occup=    1.00000
   1    -0.0050668945558384
   2    -0.063613668281677
   3    -0.072374754208394
   4    -0.021451034469013
   5      0.53997192215149
   6    -1.0917436554607e-10
   7    -0.099165277794346
   8       0.3753778635734
   9    -6.6293462225726e-11
  10    -0.073179107499925
  11       0.1256879133039
  12    -7.4148202346406e-12
  13    -0.022873978371363
  14    -0.0006291648021776
  15    -0.0038752034978126
  16    5.3232626568672e-12
  17    -0.00075427108625498
  18    1.4103542801166e-12
  19    0.00093846143046287
  20    -0.0028745623171935
  21    6.0600982762083e-12
  22    -0.0014562794255603
  23    1.2962716352573e-12
  24    0.00021844164837085
  25      0.10907566198311
  26      0.26311196152959
  27      0.16470511181531
  28     -0.34390862378252
  29    -9.0749022512957e-11
  30    -0.056789618388257
  31     -0.21168320662611
  32    -4.7282939948858e-11
  33    -0.025319484322847
  34    -0.073633485548661
  35    -3.6530286249662e-12
  36    -0.001941021772331
  37    -0.013283899529876
  38      0.02257334476929
  39    -6.9457677271753e-12
  40    -0.0095235099183782
  41    -4.1964804989081e-12
  42    0.0018297513351373
  43     0.003862141354935
  44    4.1742451235847e-13
  45    0.00078642347991415
  46    -2.5244991420064e-12
  47     -0.26868626993716
  48     -0.18239066210623
  49    -0.037488228578379
  50    0.0030434778003544
  51    -2.581098164912e-12
  52    -0.0091055009104372
  53    -0.019105793397508
  54    -6.738681240361e-13
  55     0.020105974663274
 Sym= A
 Ene=               2
 Spin= Alpha
 Occup=    1.00000
   1    -7.4808038188204e-09
   2    -1.123805255149e-09
   3    -7.6296694465529e-10
   4    9.4963359288915e-11
   5    -2.472315831675e-10
   6      0.48293643377382
   7    7.6616491176869e-10
   8    -2.028181343401e-10
   9      0.29325120273613
  10    2.5407682539656e-10
  11    -3.6343897739408e-11
  12     0.032802356604109
  13    -1.9433149181312e-11
  14    -5.1748877641188e-11
  15    -6.1408328812111e-12
  16    -0.023547370697403
  17    9.8254185035121e-12
  18    -0.0062388229740347
  19    1.409368081143e-12
  20    2.3605365853397e-11
  21    -0.026807233320924
  22    5.3333508223067e-12
  23    -0.0057340089517254
  24    -1.0020024557242e-09
  25    -2.794203518216e-10
  26    3.8485251450397e-11
  27    -2.4323751091506e-11
  28    -6.0540948743999e-10
  29      0.40143086921762
  30    -7.8011650584277e-10
  31    -2.584183758042e-10
  32      0.20915817645098
  33    -2.645373141463e-10
  34    -3.1827745859491e-11
  35     0.016157129053395
  36    -1.980853162479e-11
  37    -5.4606621254267e-11
  38    -8.3484781891424e-11
  39      0.03072491661808
  40    -2.4586740221225e-11
  41     0.018563257983275
  42    -4.8441567718895e-13
  43    -1.9986672688021e-11
  44    -0.0018467998350396
  45    -7.2862192737569e-12
  46     0.011167004887345
  47    -4.4259637255994e-11
  48    4.9328612372881e-11
  49    4.8214740048311e-12
  50    1.1353590810802e-12
  51     0.011418005103861
  52    -2.3472976148862e-11
  53    -2.401358230918e-11
  54    0.0029799986058222
  55    7.9128062332621e-12
 Sym= A
 Ene=               3
 Spin= Alpha
 Occup=    1.00000
   1     -0.01180663435711
   2     -0.10637849390747
   3    -0.073588185234786
   4     0.058641627088327
   5     -0.24446766060351
   6    -9.3791547289446e-10
   7      0.35583968697049
   8      -0.1487087034748
   9    -5.6952661851553e-10
  10      0.18362616884701
  11    -0.020577213937618
  12    -6.3704839100259e-11
  13    0.0045000365249121
  14    -0.016738118606846
  15    0.0078780573956609
  16    4.5731500282728e-11
  17     0.003648033601042
  18    1.2116422236686e-11
  19    -0.0064958513379438
  20     0.011424953394104
  21    5.2062967073758e-11
  22    0.0020652372700673
  23    1.113628056305e-11
  24    0.00078480805313402
  25      0.14130748863827
  26      0.25789479108858
  27     0.016250281623581
  28      -0.3436663211777
  29    -7.796230427053e-10
  30     -0.28916097672675
  31     -0.16853038827277
  32    -4.0620777374857e-10
  33    -0.099490284873212
  34    -0.019027481729037
  35    -3.1380281895518e-11
  36     -0.01310536125908
  37    -0.0054252263164644
  38    -0.036610214136803
  39    -5.9671215528834e-11
  40    -0.016002158090661
  41    -3.6051880063371e-11
  42    0.0088161773520163
  43    0.0003394277765419
  44    3.5871169801634e-12
  45     -0.01005082870662
  46    -2.1687518578934e-11
  47     0.021236295257466
  48     0.016437093337534
  49    -0.00042769363080812
  50    -0.0089251614519869
  51    -2.2175038587656e-11
  52    -0.007149411251604
  53    -0.010900245337476
  54    -5.78718477929e-12
  55    -0.0030480427784318
 Sym= A
 Ene=               4
 Spin= Alpha
 Occup=    1.00000
   1    -0.017040007013375
   2      0.23819661647352
   3      0.38891029315226
   4      0.12391731984392
   5     -0.01413586633914
   6    -2.9373839830511e-11
   7      0.22769844560216
   8    -0.024793188413333
   9    -1.7836033481407e-11
  10     0.073423181913979
  11    0.00042734607458481
  12    -1.9951108538763e-12
  13     -0.01210333170227
  14    -0.014863085244642
  15    0.00073722746598503
  16    1.4322355408384e-12
  17    -0.0005057949676079
  18    3.7948452972609e-13
  19    -0.0095513856003099
  20    0.0080232057788888
  21    1.6303652167635e-12
  22    -0.0034792533551075
  23    3.486862887372e-13
  24    -0.011498477240952
  25     -0.33971454403187
  26     -0.32073118996692
  27    -0.063552222770821
  28     -0.19875092333068
  29    -2.4416323146515e-11
  30     0.099809455483392
  31     -0.05341406947061
  32    -1.2722095787442e-11
  33     -0.03805962329555
  34     -0.01389217977277
  35    -9.8267458503143e-13
  36    -0.018262896048144
  37     0.008759086392323
  38    0.0046579700832712
  39    -1.8688181355572e-12
  40    -0.0082534189717575
  41    -1.1290988763342e-12
  42    -0.022222636462334
  43    -0.024837025812608
  44    1.1207727463753e-13
  45     0.016308501592798
  46    -6.7930475310657e-13
  47     -0.28773632837904
  48     -0.05031445039233
  49    -0.00032994678511901
  50     0.026173432363125
  51    -6.9446689558842e-13
  52    -0.018428480336635
  53    -0.0019127405563203
  54    -1.8135426697121e-13
  55    -0.0018244071017072
 Sym= A
 Ene=               5
 Spin= Alpha
 Occup=    1.00000
   1     0.026969782214708
   2      0.38641719118875
   3      0.41928683964968
   4     0.038360951310335
   5    -0.047401427146418
   6    1.1119963440732e-09
   7    -0.058957860755702
   8    -0.015613182653146
   9    6.7523165335719e-10
  10    -0.030832640018291
  11    0.0086580831039987
  12    7.5530283738459e-11
  13    0.0057642297061654
  14    0.0094808403129804
  15    0.0093361451598987
  16    -5.4219513808739e-11
  17    -0.0014559729970667
  18    -1.4365376577013e-11
  19    0.0084496972190449
  20    0.0055623006555781
  21    -6.1725559526301e-11
  22    -7.0642969936328e-05
  23    -1.3202769139042e-11
  24    -0.028517998248022
  25      0.28388089392883
  26      0.16692798465205
  27     0.022247667469367
  28    -0.049890753519055
  29    9.2432376061901e-10
  30       0.1031615278453
  31    -0.066285344740421
  32    4.8160204760463e-10
  33    -0.037671659576809
  34    -0.0081001633983326
  35    3.7202404116345e-11
  36    -0.010278569791585
  37     0.020316979683229
  38     0.010699096407105
  39    7.0746326526872e-11
  40    -0.0039645551216192
  41    4.2743252344002e-11
  42     -0.00889926525518
  43    -0.0031234433719897
  44    -4.2519453207349e-12
  45    -0.0083400802487417
  46    2.5712787168169e-11
  47     0.024921915324114
  48    -0.044526482635719
  49    -0.0057224280898971
  50    -0.010786830950873
  51    2.6290838143071e-11
  52    0.0072561595577759
  53    0.0076685505152582
  54    6.8618633201652e-12
  55    -0.0064750808868964
 Sym= A
 Ene=               6
 Spin= Alpha
 Occup=    1.00000
   1      0.99746858743782
   2      0.00348772638169
   3    -0.045921060482808
   4    -0.0090964470638427
   5    0.00032029228270351
   6    3.5873350194128e-09
   7    0.0069467354794536
   8    0.0044565835300015
   9    2.1783200123874e-09
  10     0.021742206908517
  11    0.00065792491048916
  12    2.4366121379044e-10
  13    0.0012216401068376
  14    -0.00047708064723419
  15    -0.00011188082568062
  16    -1.7491400681178e-10
  17    5.8238723486936e-05
  18    -4.634310437258e-11
  19    -0.0045495112977887
  20    -0.0019246465212797
  21    -1.9912829523678e-10
  22    -0.00022403721727946
  23    -4.2593121748937e-11
  24      0.12716880333118
  25    -0.013189231249159
  26     0.016267516716698
  27     0.005277006879593
  28    -0.0050456821503424
  29    2.9818976337052e-09
  30    -0.003482896412282
  31     0.004502668942547
  32    1.5536634894263e-09
  33     0.020276786739187
  34    -0.00049911314107636
  35    1.2001813840761e-10
  36    0.0022252324939331
  37    -0.00071789283309313
  38    -0.00092897072100262
  39    2.2822998415388e-10
  40    -9.1365635543604e-06
  41    1.3789108379487e-10
  42    0.0050451797471963
  43    0.0036789625665536
  44    -1.3717985238964e-11
  45    0.0011110206766656
  46    8.2950602371595e-11
  47    -0.0067962704592954
  48    0.0052789595565043
  49    -0.00015667451008227
  50    0.0011529315637804
  51    8.4814890653766e-11
  52    -0.0013829400629537
  53    -0.0025151370142884
  54    2.2135899325858e-11
  55    0.00068681975189924
 Sym= A
 Ene=               7
 Spin= Alpha
 Occup=    1.00000
   1      -0.1268910587639
   2     0.011481655114294
   3     0.020940539238513
   4    0.0047873495612049
   5    -0.00093035125862341
   6    6.0016302466615e-11
   7    -0.0005729210524371
   8    -0.00067292197549947
   9    3.6440726110453e-11
  10    -0.0021803299888358
  11    -4.2991990657103e-05
  12    4.0745093141987e-12
  13    -0.00053106270151786
  14    -0.00060810621512798
  15    -0.00019341610309484
  16    -2.9270921838653e-12
  17    -0.00010187458314093
  18    -7.7557202726984e-13
  19    -0.00054951030093093
  20    -0.00051446497159758
  21    -3.3285163302964e-12
  22    -0.00027306045846336
  23    -7.1187990571324e-13
  24      0.99715421319652
  25     0.018559338898035
  26    -0.021322836887314
  27    -0.0080133857346244
  28    0.0010204864159281
  29    4.9887322673157e-11
  30     0.005870568275849
  31    -0.0073029565515406
  32    2.5996429978227e-11
  33    -0.0032721199353597
  34     -0.00202513632617
  35    2.0094446507067e-12
  36    -9.7221443764977e-05
  37      0.00157734458213
  38    0.00042457596374088
  39    3.8184552569646e-12
  40    0.0002251200090219
  41    2.3069662358475e-12
  42    -0.0026679899725352
  43    -0.0010768627707119
  44    -2.2711213281358e-13
  45    -0.00075519080422601
  46    1.3888742807725e-12
  47    -0.00072937937841374
  48     0.011504962272561
  49    0.0013942952265844
  50    0.00089786515059706
  51    1.4188383481963e-12
  52    -0.00034175849719095
  53    -0.0044504061079735
  54    3.6993044629669e-13
  55    0.0030852512641195
 Sym= A
 Ene=               8
 Spin= Alpha
 Occup=    0.00000
   1    -9.733507600111e-11
   2    -1.7928572561677e-10
   3    1.173165974934e-09
   4    1.0208563153484e-09
   5    4.6526425034365e-11
   6     -0.48625488399585
   7    -1.2856726810552e-11
   8    -2.702393646339e-10
   9     -0.36905958676086
  10    -5.7369857961757e-10
  11    -5.204827876228e-11
  12     -0.16951466001384
  13    -2.1648158401295e-10
  14    -4.670844781623e-11
  15    -2.8553209340387e-11
  16    -0.00075070316406958
  17    1.4066932738692e-10
  18    0.0033428958596173
  19    9.4771747732832e-11
  20    1.8989551258679e-10
  21     0.006594387231379
  22    -1.9088359833175e-10
  23    0.0037278015841039
  24    -8.909597899632e-11
  25    -2.1415281233425e-10
  26    -4.2491406505883e-10
  27    -4.9984764136759e-10
  28    -8.7608653865508e-11
  29      0.53445464724099
  30    5.4823381112326e-11
  31    5.8170054045406e-12
  32      0.41533314187632
  33    -1.0485839376547e-09
  34    2.1881249108071e-11
  35      0.17004013326325
  36    -2.8168234258437e-10
  37    1.1686035019028e-12
  38    1.0100178553862e-10
  39    -0.016698000248964
  40    -2.1194576942874e-10
  41     0.010661451874352
  42    -3.0451370964388e-10
  43    -2.6218829760108e-10
  44    -0.012684066901818
  45    1.6134547224672e-10
  46     0.011888968084573
  47    -1.1356227088893e-11
  48    -7.7956752058006e-10
  49    -2.7233100082292e-11
  50    -1.1049204953976e-10
  51     0.018092509313421
  52    1.7698804717261e-10
  53    2.7347169366024e-10
  54     0.033654930837334
  55    -1.6840610708443e-10
 Sym= A
 Ene=               9
 Spin= Alpha
 Occup=    0.00000
   1    9.1667000896781e-10
   2    1.4619473453434e-09
   3    -8.4748074925017e-09
   4    -5.0655384976406e-09
   5    -3.9092782278447e-10
   6     -0.24922467592729
   7    1.1673781608963e-09
   8    2.7369243790867e-09
   9     -0.19441092744964
  10    6.1070383604928e-09
  11    4.9373590941523e-10
  12       1.6037648413885
  13    1.0549597504499e-09
  14    -2.4850893382793e-10
  15    8.245532353794e-10
  16    -0.027076222028647
  17    -1.8112816978504e-09
  18      0.10945614247433
  19    -2.3736389222242e-09
  20    -2.1659579217008e-09
  21    -0.081734185989261
  22    1.753605548502e-09
  23       0.2625278679106
  24    -5.8951617293315e-10
  25    -1.0360581859842e-09
  26    1.6800387447829e-08
  27    9.5847283358403e-09
  28    -3.0233817794867e-10
  29     0.073851104120262
  30    2.1299262373121e-09
  31    3.9730508028427e-09
  32     0.093971320853939
  33    3.628852212536e-09
  34    1.8483247856812e-09
  35      -1.8690497118098
  36    -2.2327969992867e-10
  37    3.0369841811065e-09
  38    3.2425841025985e-09
  39     0.039575971753928
  40    6.6580527466634e-10
  41    -0.011626652622303
  42    -7.412725413215e-10
  43    -4.8216782466885e-10
  44      0.17839281060126
  45    -1.100041415764e-09
  46    -0.036206838650418
  47    1.2013752367743e-09
  48    -1.1270591972688e-08
  49    -1.932330644929e-09
  50    -3.921303769743e-10
  51     0.062536431760187
  52    3.2427772843143e-10
  53    3.1589568643791e-09
  54      0.35913725506316
  55    -3.459067344121e-09
 Sym= A
 Ene=              10
 Spin= Alpha
 Occup=    0.00000
   1     0.014288042172761
   2       0.1050477023456
   3     0.046597436205587
   4     -0.12466104239332
   5      0.11791579839956
   6    -9.8552260321342e-10
   7     0.011142351559532
   8     0.075190503781922
   9    9.5420565270292e-10
  10     -0.13966762928558
  11     -0.42629422444082
  12    2.1986292340398e-09
  13     -0.53720832768956
  14     -0.12538225233171
  15    0.0027973069665175
  16    -1.8196876617184e-09
  17     -0.19811542893307
  18    -1.8075123870339e-09
  19     -0.16160940179962
  20    0.0028195814943334
  21    2.3201224657202e-09
  22     -0.37557110901311
  23    -1.0270782549332e-09
  24    0.0031035395294782
  25     -0.11065659473652
  26      -0.2386091960145
  27      -0.3865562639564
  28     -0.23707371505392
  29    7.8879201443131e-10
  30    -0.049307484810751
  31     -0.21286386739192
  32    2.1551699200274e-09
  33      0.29105296404038
  34      0.35252395871804
  35    -2.0555037777342e-09
  36     0.044367301793095
  37    -0.011829446313504
  38    -0.027823985669549
  39    4.1261505733783e-09
  40    -0.029497551651378
  41    -1.0875010676656e-09
  42      0.07654235682037
  43      0.01744708157538
  44    -5.2010516746185e-09
  45    -0.083808220994637
  46    4.317531686819e-09
  47      0.27698540262069
  48      0.31267586997013
  49      0.18680331225417
  50      0.02727157929804
  51    -6.8627721882547e-09
  52    -0.024506426230517
  53     0.045951366352492
  54    -1.9596969994988e-10
  55     -0.13651108475203
 Sym= A
 Ene=              11
 Spin= Alpha
 Occup=    0.00000
   1    1.3066727699279e-09
   2    2.2885750481723e-09
   3    -2.3929982775958e-08
   4    -4.2359096662234e-08
   5    -1.2487905586155e-09
   6      0.21386188937708
   7    -4.2114310120134e-10
   8    1.1946005749319e-09
   9      0.24780572664628
  10    1.767252479147e-08
  11    -3.0612343211814e-09
  12     -0.39927260766674
  13    7.6269491191411e-09
  14    9.6586651765313e-10
  15    -4.1030049453265e-09
  16     -0.26343024483543
  17    5.1842527472186e-09
  18      0.20814597798247
  19    -8.9191901510967e-09
  20    3.8739812965005e-09
  21     -0.49315386826037
  22    -6.9433376813964e-10
  23      0.30713688822891
  24    -3.28699673502e-10
  25    -6.718058241991e-10
  26    2.4613946079381e-08
  27    3.234486569921e-08
  28    -3.7602929517658e-09
  29     -0.18052573330784
  30    1.4959165534015e-09
  31    1.6551269994575e-08
  32     -0.31143257227336
  33    2.1157267012364e-08
  34    5.8195547696074e-09
  35       0.2586210335629
  36    8.1939796068414e-09
  37    -1.2606089394309e-09
  38    -2.6186832208941e-09
  39    -0.098308018909052
  40    5.8604741550093e-09
  41      0.13330371634131
  42    4.7060770315565e-09
  43    9.2317325240633e-09
  44     -0.40269156386709
  45    3.4139486053718e-09
  46      0.12639480028177
  47    1.9378208114258e-09
  48    -1.2787052468137e-09
  49    2.9686414216156e-09
  50    -9.6363572644982e-10
  51    -0.014959523793573
  52    -1.8925588612141e-09
  53    -3.9485322931456e-09
  54      0.12297345299651
  55    9.3224690570787e-10
 Sym= A
 Ene=              12
 Spin= Alpha
 Occup=    0.00000
   1    9.0844736903647e-09
   2    2.3664949531777e-08
   3    3.5057165212978e-08
   4    1.674438165138e-07
   5    -2.2529282523925e-09
   6     -0.26378149761796
   7    1.6773774287029e-08
   8    -3.1822141081138e-08
   9      0.26174545824819
  10    -6.4620261167631e-08
  11    -1.9293365954292e-08
  12     -0.19318593623788
  13    -3.0426731371538e-08
  14    8.6368121790098e-09
  15    1.6114894346914e-09
  16      0.42420732111903
  17    -3.3374666125225e-10
  18      0.14806669961563
  19    5.2690571873028e-09
  20    1.8883445694454e-08
  21      0.26561914897376
  22    -1.0921302424365e-08
  23     0.042724073420416
  24    7.9793289855476e-10
  25    1.1632851561755e-09
  26    -7.3209103047523e-08
  27    -6.6277211441181e-08
  28    -1.804096693194e-08
  29     -0.41644230668464
  30    8.7279178994613e-09
  31    2.4528463352463e-08
  32       0.3910819250511
  33    -8.8121187752059e-08
  34    8.3904654852635e-09
  35      0.11577417838244
  36    -4.3954773452858e-08
  37    1.6252878097047e-09
  38    1.1632888767065e-08
  39    -0.070661383555157
  40    -1.9203862126564e-08
  41      0.16282931656483
  42    -3.3849352874416e-08
  43    -5.8244075170152e-09
  44     0.022478474377281
  45    2.4472600931905e-08
  46     0.001150164436531
  47    3.3289148436786e-09
  48    -7.8044937521265e-08
  49    -1.4003022209416e-08
  50    -2.0203754240939e-08
  51      0.38340517813365
  52    4.4441805553935e-10
  53    1.9020426147287e-08
  54      0.18238506851101
  55    -9.7941894504461e-09
 Sym= A
 Ene=              13
 Spin= Alpha
 Occup=    0.00000
   1    1.7829360449867e-08
   2    4.0586932884982e-08
   3    -1.1593927360248e-07
   4    2.2858367830695e-07
   5     7.21334247266e-09
   6     -0.22847239368476
   7    2.3647787765219e-08
   8    -4.1753649859453e-08
   9      0.26216307932235
  10    -4.3353542149167e-08
  11    1.2750215843537e-08
  12    -0.082100738837267
  13    -1.0967739924161e-07
  14    5.502236689394e-09
  15    -2.1718230994557e-08
  16     -0.16707456422907
  17    2.2703346628765e-08
  18     -0.20903668365791
  19    5.6611549308783e-09
  20    3.8738828127051e-08
  21      0.20588379189212
  22    6.0270514831991e-09
  23      0.21037864087548
  24    1.2361677614716e-08
  25    3.725744242718e-08
  26    4.6842216410611e-08
  27    1.3610120230316e-08
  28    3.7991527674508e-08
  29      0.45426916077613
  30    -1.7558257141392e-08
  31    3.1248983504873e-08
  32     -0.46868527104763
  33    -3.1708789741643e-08
  34    1.9053672349872e-08
  35       1.0085061660042
  36    1.9130041351205e-08
  37    -1.2014552234489e-08
  38    9.0442061063847e-09
  39     -0.28161278849849
  40    2.1305268507291e-08
  41      0.34988526750429
  42    4.1490476047979e-08
  43    8.4075985461725e-08
  44    -0.025968305929197
  45    -7.0126957090367e-08
  46      0.34770411119072
  47    5.6739757959084e-08
  48    -2.4318037411191e-07
  49    -6.7130515543266e-08
  50    8.1753333427569e-08
  51     -0.11908048030655
  52    4.8785993400399e-09
  53    7.2485750840882e-08
  54     -0.71236766081839
  55    -1.1779025639487e-07
 Sym= A
 Ene=              14
 Spin= Alpha
 Occup=    0.00000
   1    -4.5970006504717e-07
   2    -7.8899333181054e-07
   3    6.9391261045226e-07
   4    -1.5237590780783e-06
   5    5.7477795182277e-08
   6       -0.896334612301
   7    4.2819667060043e-07
   8    -1.2813352733141e-06
   9       2.0354936683499
  10    -1.3913257003858e-06
  11    -1.1676721064404e-06
  12     -0.76965532122755
  13    2.1426783710819e-07
  14    3.8146068846118e-07
  15    -4.0508766542388e-07
  16     -0.06109899509964
  17    -1.5037729966758e-07
  18     0.067889291232474
  19    7.9533592466985e-07
  20    1.4106150369787e-06
  21     -0.71294006236989
  22    -9.5018518386856e-08
  23     -0.18630133120418
  24    -5.3831538488039e-07
  25    -8.7565006341533e-07
  26    2.1043569669791e-06
  27    9.5298262201269e-06
  28    -5.6780538518573e-07
  29     -0.16713461523922
  30    -1.5709127691402e-06
  31    2.2519472396178e-06
  32     -0.92362661699978
  33    -1.1244138400472e-06
  34    1.9912397962221e-06
  35       0.4796276596251
  36    -1.2768781134864e-06
  37    1.1427152793299e-06
  38    1.8744718656828e-06
  39      0.19169765789014
  40    -5.4012281762314e-07
  41    -0.093622999873956
  42    7.1715153239588e-07
  43    1.1786724328002e-06
  44     -0.69632007664709
  45    -1.452879208155e-06
  46     -0.20304480228672
  47    1.9068608207603e-06
  48    -1.0355197839747e-05
  49    -2.0414355993525e-06
  50    -2.6017357877174e-07
  51    -0.097210309549945
  52    9.8758228759292e-07
  53    4.3046624585275e-06
  54    -0.023281305761485
  55    -5.9001718471251e-07
 Sym= A
 Ene=              15
 Spin= Alpha
 Occup=    0.00000
   1    -3.2862771099585e-06
   2    -5.0159367841365e-06
   3    5.9765921948688e-05
   4    7.721496536602e-05
   5    -6.0130184704633e-07
   6      0.06080851371591
   7    6.0689217171017e-06
   8    -1.2305138784349e-05
   9      -1.0039527248989
  10    -4.1491850362246e-05
  11    -9.1511495509753e-06
  12      0.40062903912768
  13    -1.2966249000591e-05
  14    -2.6547196120727e-06
  15    9.8495382375089e-08
  16     -0.23399787515003
  17    -3.4521745439741e-06
  18     -0.20179025668147
  19    1.0692139875171e-05
  20    9.9799686216788e-06
  21      0.23589951832437
  22    -9.1380165174324e-07
  23      0.14236977867437
  24    -1.6889684018601e-06
  25    -2.7083606608242e-06
  26    -4.0901542566905e-05
  27    -6.3714935346959e-05
  28    -1.9933253821679e-07
  29     -0.74968100368083
  30    -1.125234475665e-07
  31    -2.7353619475362e-06
  32       1.7215217097708
  33    -6.3068556074662e-05
  34    -5.5727862278553e-06
  35      0.22202924000444
  36    -2.3018524654881e-05
  37    7.3909616581659e-08
  38    1.1814963095654e-06
  39      0.14326254832944
  40    1.2373183585771e-06
  41     0.073223310101537
  42    -1.5839254917766e-05
  43    -1.4437610155915e-05
  44      0.25548551877566
  45    9.4821980852914e-07
  46      0.45070171671192
  47    -6.1515674632871e-06
  48    -2.7768249478503e-05
  49    9.6877133983739e-06
  50    2.8464595594695e-07
  51     -0.18125504152808
  52    -7.7466367643905e-06
  53    1.2850327445582e-05
  54     -0.93295950598278
  55    1.3862347343655e-05
 Sym= A
 Ene=              16
 Spin= Alpha
 Occup=    0.00000
   1    -0.007381191775669
   2     -0.01526781876276
   3      0.13025630764649
   4    -0.010161263373316
   5    -0.069541772409103
   6    0.0067939041057044
   7     0.057141204877282
   8     -0.10172990787507
   9     -0.48853023323502
  10    -0.0074047051949703
  11      0.33958311853738
  12     -0.72312894356726
  13     -0.28538086888509
  14    0.0071187307250985
  15    0.0071842697275491
  16    -0.018646928282026
  17     0.020514129175722
  18     -0.19091354954077
  19     0.032143266736582
  20    0.0039676819455317
  21       0.5510135092929
  22     0.038507733628173
  23      0.24631570055511
  24    -0.006811893729572
  25     0.041401653168804
  26      0.24785595796358
  27      0.74383472582347
  28    -0.094166928635544
  29    -0.053823353934047
  30    0.0022329823805091
  31    -0.036846799349036
  32       1.1356432988942
  33     -0.20211285351538
  34      0.69481354619946
  35      0.18180783771171
  36     0.088167265025739
  37    0.0015921757166586
  38    -0.0075882182070851
  39    -0.041579702296355
  40    -0.0059406948045003
  41       0.1993600882034
  42    -0.047619330666708
  43    -0.054972542303847
  44      0.55068773852485
  45     0.048414454553432
  46       0.3288893524552
  47     -0.01787215656123
  48     -0.75667186974212
  49     -0.80716498591968
  50     0.012379792171551