[Molden Format]
made by pyscf v[2.13.1]
[Atoms] (AU)
O   1   8     0.21099695469856     0.00000000000000     2.15462460678861
N   2   7    -0.44776862100326     0.00000000000000    -0.03589262653049
H   3   1     1.18163474748449     0.00000000000000    -1.17386889907833
[GTO]
1 0
 s    8 1.00
                 11720  0.00070964594651845
                  1759  0.0054672722921914
                 400.8   0.027823118610189
                 113.7    0.10474773971146
                 37.03    0.28292084635691
                 13.27    0.44849523869833
                 5.025    0.27081688521277
                 1.013    0.01545029160744
 s    8 1.00
                 11720  -0.00031444341168873
                  1759  -0.0024821376810179
                 400.8  -0.012316355381583
                 113.7  -0.050538917343672
                 37.03   -0.13938490331632
                 13.27   -0.32507749481778
                 5.025   -0.22984830758785
                 1.013     1.0953793467883
 s    1 1.00
                0.3023                   1
 s    1 1.00
               0.07896                   1
 p    3 1.00
                  17.7   0.062679166281506
                 3.854    0.33353656587936
                 1.046    0.74123964163973
 p    1 1.00
                0.2753                   1
 p    1 1.00
               0.06856                   1
 d    1 1.00
                 1.185                   1
 d    1 1.00
                 0.332                   1

2 0
 s    8 1.00
                  9046  0.00069961741342552
                  1357  0.0053860546299287
                 309.3   0.027391021189057
                 87.73    0.10315059198201
                 28.56    0.27857066331743
                 10.21    0.44829484945412
                 3.838    0.27808592839527
                0.7466   0.015431561233271
 s    8 1.00
                  9046  -0.00030499009595337
                  1357  -0.0024080263785077
                 309.3   -0.01194444872518
                 87.73  -0.048925992909017
                 28.56   -0.13447272472496
                 10.21   -0.31511257770011
                 3.838   -0.24285783254964
                0.7466     1.0943822068542
 s    1 1.00
                0.2248                   1
 s    1 1.00
               0.06124                   1
 p    3 1.00
                 13.55   0.058905676772132
                 2.917    0.32046110671427
                0.7973    0.75304206179207
 p    1 1.00
                0.2185                   1
 p    1 1.00
               0.05611                   1
 d    1 1.00
                 0.817                   1
 d    1 1.00
                  0.23                   1

3 0
 s    3 1.00
                 13.01   0.033498726389998
                 1.962    0.23480080117413
                0.4446     0.8136829578829
 s    1 1.00
                 0.122                   1
 s    1 1.00
               0.02974                   1
 p    1 1.00
                 0.727                   1
 p    1 1.00
                 0.141                   1

[5d]
[7f]
[9g]

[MO]
 Sym= A
 Ene=               0
 Spin= Alpha
 Occup=    1.00000
   1    -0.0029929736858154
   2    -0.015406580548012
   3    -0.013005527728034
   4    -0.010286172967175
   5      0.52203039100604
   6    -2.5909581869249e-14
   7    -0.084795011565817
   8      0.36482822634464
   9    -1.5829187096321e-14
  10    -0.067599246435785
  11      0.12511619713832
  12    -1.0885701473228e-15
  13    -0.022540793927461
  14    -0.00080427887210956
  15    -0.0025295078078353
  16    1.3199306234703e-15
  17    -0.00079295389857625
  18    3.1338277276368e-16
  19    0.0011236666147838
  20    -0.0014925536498294
  21    1.4135428307805e-15
  22    -0.0015540171768257
  23    3.5368150775153e-16
  24    -0.00058365343574365
  25      0.12597827964751
  26      0.27120930192262
  27       0.1636706975492
  28     -0.36722905670315
  29    -2.1650029214503e-14
  30     -0.04767575694964
  31     -0.22484352004582
  32    -1.1092752052503e-14
  33    -0.033277761703814
  34    -0.075180937594387
  35    -1.4453172344474e-15
  36    -0.0041517595613838
  37    -0.010702659677368
  38      0.02272517538758
  39    -1.6358438815615e-15
  40    -0.010790083435346
  41    -9.9984421837525e-16
  42    3.9259221092398e-05
  43     0.002308139464449
  44    8.2990379403973e-17
  45    0.00045410534940822
  46    -6.4989511010607e-16
  47     -0.27862073942702
  48     -0.18812237986042
  49    -0.037888031668638
  50     0.002975586794757
  51    -5.1089255213284e-16
  52    -0.0094271339048486
  53    -0.018563036841908
  54    -3.3475942892848e-16
  55     0.019057048201215
 Sym= A
 Ene=               1
 Spin= Alpha
 Occup=    1.00000
   1    -1.7366426192748e-09
   2    1.9194015099804e-12
   3    1.0464227531921e-10
   4    4.3018425128485e-11
   5    -7.0349059422008e-11
   6      0.48293643377382
   7    1.0908795723476e-10
   8    -5.0871154838559e-11
   9      0.29325120273613
  10    2.3274599510587e-11
  11    -8.4914032342291e-12
  12     0.032802356604109
  13    1.4501316843984e-13
  14    -3.4340525218779e-12
  15    2.6000195903462e-12
  16    -0.023547370697403
  17    6.130405308809e-13
  18    -0.0062388229740347
  19    7.6950442809409e-12
  20    6.8070367496866e-12
  21    -0.026807233320924
  22    1.1058557851888e-12
  23    -0.0057340089517254
  24    -6.3514824295635e-10
  25    8.4227921209056e-11
  26    6.6923898317668e-11
  27    -6.0833465301487e-12
  28    -8.1658288636198e-11
  29      0.40143086921762
  30    -9.4873741816666e-11
  31    -5.5875543556937e-11
  32      0.20915817645098
  33    -7.4505380813325e-11
  34    -3.6371905961182e-12
  35     0.016157129053395
  36    -9.9909608243308e-12
  37    -3.0851660560992e-13
  38    -9.5986142659539e-12
  39      0.03072491661808
  40    -4.3848516282124e-12
  41     0.018563257983275
  42    -5.4358774096002e-12
  43    -5.9267840942262e-12
  44    -0.0018467998350396
  45    -6.3658718402618e-12
  46     0.011167004887345
  47    4.3425718513577e-11
  48    -4.0158538529006e-12
  49    1.6758118978572e-13
  50    -7.4303099391129e-12
  51     0.011418005103861
  52    2.0034628094796e-12
  53    3.6048268720875e-12
  54    0.0029799986058222
  55    -3.5071438859504e-12
 Sym= A
 Ene=               2
 Spin= Alpha
 Occup=    1.00000
   1    -0.0022347407401138
   2    -0.077664296700338
   3    -0.081297025564915
   4    0.0065211530223622
   5     -0.38190191132243
   6    -1.2238894193145e-10
   7      0.17733857108221
   8     -0.22421817911423
   9    -7.4318391759634e-11
  10      0.10534457583442
  11    -0.023625407741073
  12    -8.3117953397444e-12
  13      0.00781546615341
  14    -0.010008909481603
  15     0.016621856445787
  16    5.967475009112e-12
  17    0.0052993978624527
  18    1.5810319215783e-12
  19    -0.0077486761287323
  20     0.017876752859882
  21    6.7940178845776e-12
  22    0.0023620311804522
  23    1.453361243079e-12
  24    -7.2565381463688e-05
  25      0.18497316003772
  26      0.27732067278581
  27     0.044577640001545
  28     -0.39424277951675
  29    -1.0173344769276e-10
  30    -0.077196038266163
  31     -0.17658116561042
  32    -5.3005881277934e-11
  33    -0.048471382169755
  34     -0.01474702780502
  35    -4.0960188788814e-12
  36    -0.0047895967006833
  37     0.010329328237683
  38    -0.027182839129878
  39    -7.7865629108394e-12
  40    -0.020162563043972
  41    -4.7044266247404e-12
  42    0.0012920843764821
  43    -0.0034403867983921
  44    4.6848188795482e-13
  45    -0.0049202666058905
  46    -2.8299460843242e-12
  47      -0.0885292729497
  48    -0.031632624827589
  49    -0.0036015888566565
  50    -0.0018350709600549
  51    -2.8936471739834e-12
  52    -0.0094528391679071
  53    -0.0040890601410733
  54    -7.5499910181119e-13
  55    -0.011142720730675
 Sym= A
 Ene=               3
 Spin= Alpha
 Occup=    1.00000
   1    0.0040461675786867
   2     0.015654871017336
   3    0.0094232642154705
   4    -0.052744714791929
   5     -0.13493099814815
   6    9.3977720715126e-11
   7     -0.22491767552623
   8    -0.078720786695614
   9    5.7066118765934e-11
  10      -0.1162070864673
  11     0.004173027034061
  12    6.3833727091138e-12
  13    -0.0053143473721329
  14    0.0025560327903159
  15    0.0093593645496288
  16    -4.5821952896509e-12
  17    0.0024447736354268
  18    -1.2140164050403e-12
  19    -0.009229552232695
  20     0.010216383552025
  21    -5.2168011533502e-12
  22    -0.0016439062241302
  23    -1.1159673796552e-12
  24    0.0045330248168494
  25     -0.22987572696984
  26     -0.21922758630434
  27     0.015773666312035
  28     -0.12968924304822
  29    7.8117341354249e-11
  30      0.40099495082826
  31     0.000382660802595
  32    4.070123493836e-11
  33     0.096355741310281
  34    0.0013624067439897
  35    3.144564723952e-12
  36     0.011134319533425
  37     0.021828420768383
  38     0.021135875808414
  39    5.9789889266343e-12
  40    -0.0073704790140512
  41    3.6123289829921e-12
  42    -0.020992582015056
  43    -0.016961103485241
  44    -3.5972797298206e-13
  45     0.021786618970516
  46    2.173099576352e-12
  47      -0.3578793527428
  48     -0.10198166575055
  49    -0.0057163972327119
  50     0.030912488082365
  51    2.2219020500831e-12
  52    -0.015463881702989
  53    0.0075114546953903
  54    5.795552898737e-13
  55    -0.0096218555938752
 Sym= A
 Ene=               4
 Spin= Alpha
 Occup=    1.00000
   1    0.0011573938499977
   2      0.16150244935774
   3      0.33480669417747
   4      0.17461758327689
   5     0.080399998023675
   6    -2.4776090300211e-11
   7      0.45247054915384
   8     0.022129207140663
   9    -1.5044190403627e-11
  10      0.18222828055778
  11    -0.0083115221957626
  12    -1.6830553205799e-12
  13    -0.011697492230444
  14    -0.022310320859246
  15    -0.0085151025689455
  16    1.2080288758026e-12
  17    -0.0019205818969673
  18    3.2007816197292e-13
  19    -0.007401433255721
  20    0.00059524469387881
  21    1.3752241998369e-12
  22    -0.0029258275075094
  23    2.9411869287977e-13
  24    -0.020553410514347
  25     -0.32848598754598
  26     -0.28203828889202
  27    -0.097986892777765
  28     -0.11929969078418
  29    -2.059472540483e-11
  30     -0.19673659158465
  31    -0.038019127345127
  32    -1.0730826341986e-11
  33     -0.10185755803203
  34    -0.013127316718155
  35    -8.2899466199851e-13
  36    -0.026616136641225
  37    -0.010866548403392
  38    -0.013272096728891
  39    -1.5763224319338e-12
  40    -0.0030893506236746
  41    -9.523614275921e-13
  42    -0.0087368472764959
  43    -0.016546458307397
  44    9.4537399721277e-14
  45    0.0063542097933426
  46    -5.7303149468797e-13
  47    -0.087136848657973
  48      0.03105199708986
  49     0.006376263182012
  50     0.012216485593981
  51    -5.8577462799995e-13
  52    -0.012813197617702
  53    -0.0093912951531471
  54    -1.5280689533462e-13
  55    0.0060810038681168
 Sym= A
 Ene=               5
 Spin= Alpha
 Occup=    1.00000
   1    -0.0035876269231754
   2      0.45281574606576
   3      0.52087966204332
   4     0.064512077320353
   5    -0.052443015140636
   6    -2.941488195511e-11
   7    -0.035217233250225
   8    -0.029063172693317
   9    -1.786196384572e-11
  10    -0.028477375932526
  11    -0.0015520852036762
  12    -1.9978416723013e-12
  13    0.0040531671920059
  14    0.0078760382260828
  15     0.007353252998679
  16    1.4342167918307e-12
  17    -0.0022502063106248
  18    3.7996744854789e-13
  19    0.0071061326727704
  20    0.0049636352825577
  21    1.6329048889354e-12
  22    -0.0011301472727747
  23    3.4943062306874e-13
  24     0.026034013370535
  25      0.15429472263742
  26     0.008242636522341
  27    -0.018030522119996
  28     0.007310824832305
  29    -2.4450516241546e-11
  30      0.15799801611578
  31    -0.023970551223672
  32    -1.2739356123274e-11
  33    -0.031323593969293
  34    -0.00026330123505276
  35    -9.8425841743185e-13
  36    -0.012691174335854
  37     0.022589245767034
  38      0.01433544275493
  39    -1.8714271514475e-12
  40    -0.001532327290013
  41    -1.1306619476167e-12
  42    -0.015065779198843
  43    -0.0091316481602806
  44    1.1292250293173e-13
  45    -0.0031456995037158
  46    -6.8018124730976e-13
  47    -0.0066664867183765
  48    -0.032117303002619
  49    -0.00098473759087073
  50    -0.0037220444841455
  51    -6.9541520183606e-13
  52    0.0051292734369226
  53     0.010028734468322
  54    -1.8138187829882e-13
  55    -0.007377454049797
 Sym= A
 Ene=               6
 Spin= Alpha
 Occup=    1.00000
   1     0.025435031574085
   2    -0.010922853201059
   3    -0.010521047840573
   4    0.0022278426891318
   5    0.0026847435345702
   6    3.2606664977541e-10
   7    0.0088582656469936
   8    0.0015179864367958
   9    1.979932129624e-10
  10    0.0053940598357073
  11    -0.00026943459354241
  12    2.2145328399984e-11
  13    -0.00065668859972926
  14    -0.001388770847641
  15    -0.00077203303422499
  16    -1.5899375389992e-11
  17    -5.8125675706744e-06
  18    -4.2125519348434e-12
  19    -0.0016872427193954
  20    -0.0011202956393695
  21    -1.8096626053059e-11
  22    -0.0002752619020842
  23    -3.8707583372029e-12
  24       1.0048349640072
  25    0.0035373577009858
  26    -0.023378157362968
  27    -0.0079659091063497
  28    0.00026317915590704
  29    2.7103613869495e-10
  30    -0.0068338496381961
  31    -0.0048305168300646
  32    1.4122198942313e-10
  33    0.00014422943158258
  34    -0.0020167925420411
  35    1.0910454511551e-11
  36    0.00058485006443626
  37    1.4928420493382e-05
  38    -0.00075771678274577
  39    2.0744854943622e-11
  40    0.00034779763279249
  41    1.2533491258751e-11
  42    -0.0011052203369397
  43    -0.00017539404390605
  44    -1.2445122614733e-12
  45    -0.00037405498096413
  46    7.5408060575124e-12
  47    -0.00067546585277667
  48     0.015195162032619
  49     0.001616181554205
  50    0.0013411464688244
  51    7.7090293043744e-12
  52    -0.00091630635715268
  53    -0.0054280987585771
  54    2.0116082779983e-12
  55    0.0036396753970372
 Sym= A
 Ene=               7
 Spin= Alpha
 Occup=    1.00000
   1        1.005757696476
   2     0.010884890028049
   3    -0.041614245599276
   4    -0.011560773926052
   5    -0.00060429956875255
   6    8.2491457454625e-10
   7    -0.0030997482547926
   8     0.004524240118453
   9    5.0090891960137e-10
  10     0.017570169309812
  11    0.00079700888813931
  12    5.6030406976766e-11
  13    0.0017356311542254
  14    0.00039390067816138
  15    0.00018923762763509
  16    -4.022175515189e-11
  17    1.3198159129333e-05
  18    -1.0656688760856e-11
  19    -0.0039058668784667
  20    -0.0018593080561784
  21    -4.5790030938005e-11
  22    -0.00012912323784962
  23    -9.794406523558e-12
  24    -0.025560341626233
  25    -0.0014366348494133
  26     0.028017558218856
  27    0.0079627703095963
  28    0.00065031630579973
  29    6.8569307287412e-10
  30    0.00083105881860905
  31    0.0063767958564866
  32    3.5726776977748e-10
  33     0.021221018631652
  34    0.0001798490568983
  35    2.7598315134878e-11
  36    0.0023908028427709
  37    -0.00030062453830474
  38    -0.00040867836385034
  39    5.248190766548e-11
  40    0.0001300104329502
  41    3.1708317879588e-11
  42    0.0054041025260033
  43    0.0041398129546622
  44    -3.1545485478566e-12
  45    0.00074165735853419
  46    1.9074609027303e-11
  47    -0.00038253744363235
  48     0.003051317933404
  49    -0.00046693323543629
  50    0.00026010261808333
  51    1.9503352511574e-11
  52    -0.00065379302641096
  53    -0.0013531791848321
  54    5.0902263597622e-12
  55    -2.2231598896972e-05
 Sym= A
 Ene=               8
 Spin= Alpha
 Occup=    0.00000
   1    -0.0030460101586388
   2    -0.039260900841486
   3    -0.082012899842433
   4     0.026091315146193
   5    0.0030580680228126
   6    -3.8244936688683e-12
   7    -0.065245316311505
   8    0.0047285983215413
   9    7.8612821245142e-12
  10    -0.053282732577805
  11     0.045430770274054
  12    -4.8844658891837e-14
  13     -0.10754887622309
  14    -0.005647505344739
  15    0.0017763459469891
  16    2.5405429009517e-12
  17    0.0025699138632252
  18    1.9413938179961e-11
  19    -0.012193971603164
  20    -1.1261110869319e-05
  21    -9.0104040673928e-13
  22    0.0043846312947084
  23    -1.4282875772331e-11
  24    -0.010723609722382
  25     -0.12306461477366
  26     -0.29434243744235
  27     -0.56089528738451
  28     -0.13649016667179
  29    4.1323860998757e-12
  30       0.1264579879771
  31      -0.1329110957182
  32    -6.5519273957517e-12
  33     0.097630935582088
  34     -0.13028518706693
  35    1.8410719543763e-12
  36      0.12266533185349
  37    0.0026009279815335
  38    -0.0010740603124808
  39    5.8867574679219e-12
  40    -0.00077290696076588
  41    -7.6979286449492e-12
  42    -0.0091547344389884
  43    0.0088681577954893
  44    -9.4888536273864e-12
  45    -0.006935727760187
  46    7.2857863696583e-12
  47     0.042844373205482
  48      0.39424240081658
  49       1.2394110837116
  50     0.018842001697516
  51    -5.4590364542599e-12
  52    -0.0084427833303435
  53     0.035225187085796
  54    8.9235657932139e-13
  55    -0.027623667228007
 Sym= A
 Ene=               9
 Spin= Alpha
 Occup=    0.00000
   1    -1.8702078716648e-10
   2    -3.2954836815211e-10
   3    2.7077143417663e-09
   4    2.5070753278404e-09
   5    -1.1994801414938e-10
   6      -0.4499674526364
   7    -1.1318062248747e-10
   8    8.4525068256791e-10
   9     -0.33726498509071
  10    -1.4727566583204e-09
  11    -3.3130536773477e-11
  12    -0.0092250494287286
  13    -5.3939919317991e-10
  14    -1.2411770659771e-10
  15    4.4149424165827e-10
  16    -0.009157209835743
  17    4.0858760733675e-10
  18     0.016755852580497
  19    5.560021307704e-10
  20    -7.9417115645083e-10
  21    0.0050273217091152
  22    -8.1804792380173e-10
  23      0.03339633357879
  24    4.5313667388797e-10
  25    7.6505647215606e-10
  26    -4.569816980987e-09
  27    -3.0248193794047e-09
  28    -1.9264479937626e-10
  29      0.20345518386154
  30    3.1906502818683e-10
  31    -2.7766130095301e-09
  32      0.37666559340357
  33    -1.3633806951502e-09
  34    -6.5410614060737e-10
  35      0.36094681991048
  36    -6.5078506218704e-10
  37    5.3270027511711e-11
  38    1.956431655655e-10
  39    -0.066234559831722
  40    -2.2116295469592e-10
  41    -0.010873153361538
  42    -8.7390547082881e-11
  43    -1.0102097574557e-09
  44    -0.076404029859483
  45    -4.7674971253088e-10
  46      0.13096196244486
  47    1.0640670285501e-09
  48    1.7896942935908e-09
  49    2.5140429474804e-10
  50    -4.8554401467238e-10
  51     0.052857579753218
  52    4.2701672016843e-10
  53    -1.7775051556693e-10
  54      0.16634664612451
  55    6.4133695361393e-10
 Sym= A
 Ene=              10
 Spin= Alpha
 Occup=    0.00000
   1     -0.01203189898836
   2     0.053826499373928
   3      0.48748519206192
   4       0.1449529617734
   5      0.07231993531474
   6    1.4867473560029e-10
   7     0.022016802504621
   8     0.063817141927898
   9    -6.8496271612591e-10
  10     -0.15010144833673
  11     -0.40553836516938
  12    -2.0903320582358e-10
  13      0.14745804561122
  14     0.018208873025913
  15    0.0037484690695209
  16    -5.5645837382692e-10
  17     -0.01885081959407
  18    3.3440422607359e-10
  19      0.10594537861307
  20      0.01234923559156
  21    9.2704602194266e-10
  22    -0.048134965041589
  23    -1.7467275138392e-11
  24    -0.037666836486238
  25     -0.11551089039701
  26     -0.13667133749801
  27      0.40513184677215
  28      0.17957166155294
  29    -1.5205273042344e-10
  30       0.1254250656894
  31      0.11246443687881
  32    1.0025463069743e-09
  33     -0.33357027687584
  34    -0.050660036862988
  35    -1.350053550253e-10
  36     -0.85710352527088
  37    0.0090507990685995
  38      0.10254766555641
  39    -1.557726505337e-10
  40     0.018744508576612
  41    2.8039488167332e-10
  42    0.0037994945157117
  43    -0.059380368921654
  44    6.3452623869171e-10
  45     -0.13526657705032
  46    2.4150284866501e-10
  47     -0.17142263998044
  48     -0.42047183813207
  49     -0.16285432107545
  50    -0.045826746836773
  51    -3.2489047573511e-10
  52    -0.0079644582653697
  53    -0.017420971245565
  54    1.1192256302436e-11
  55     -0.21680807848767
 Sym= A
 Ene=              11
 Spin= Alpha
 Occup=    0.00000
   1    0.0056296873740171
   2     0.055209011136687
   3      0.18033695078583
   4      0.19084347641046
   5     0.080076831284542
   6    3.4691671032696e-10
   7     -0.18504758617408
   8      0.11472299551721
   9    -6.6086140672232e-10
  10     -0.19764103013092
  11       0.2930121346365
  12    1.177475821591e-10
  13     0.055610264336373
  14    -0.023783534501284
  15     0.017774514428933
  16    4.940282191265e-10
  17     0.011003221320437
  18    -4.5833303828582e-10
  19    -0.017995939386226
  20    -0.0085963316808311
  21    9.5967480739757e-11
  22    -0.013989339277716
  23    5.0995334661151e-10
  24    -0.062327459481174
  25     -0.32328032493252
  26     -0.61613477698074
  27       0.3347473687057
  28     -0.46238918479245
  29    -1.5509781577629e-10
  30      0.27740098854433
  31     -0.18934881614068
  32    6.6075428778071e-10
  33     -0.17779872970735
  34     -0.27707676069474
  35    -7.7500131432281e-11
  36    -0.062341250562083
  37      0.11323404101911
  38    -0.011798209560513
  39    2.3231588410782e-10
  40    -0.0097768897071897
  41    -4.2205934725165e-10
  42       0.1091028194482
  43     -0.22976286746832
  44    2.5299218871348e-10
  45     0.034026988682745
  46    2.8259615299143e-10
  47      0.67599527956053
  48      0.38419452901607
  49     -0.68656369978645
  50     0.028109249815897
  51    2.8196603082405e-10
  52      -0.1035967494995
  53     -0.24798258939705
  54    -4.9910507276564e-10
  55     0.054602883255554
 Sym= A
 Ene=              12
 Spin= Alpha
 Occup=    0.00000
   1    -0.022000417403073
   2       -0.198194816156
   3      -0.6505904188216
   4        1.303085712314
   5      0.13746855184199
   6    -8.4215530621128e-11
   7      0.19053461330714
   8      0.11266102240691
   9    1.3000898595505e-09
  10      0.18383467514483
  11      0.38061536864012
  12    1.3778355149363e-09
  13       0.2363975625099
  14    -0.078022929366479
  15      0.12875463721393
  16    7.7613427990565e-10
  17    -0.0076166659993127
  18    -2.1871638491554e-09
  19      0.08651379614582
  20    -0.085137154976457
  21    -2.2263992259824e-09
  22    -0.020498165261377
  23    4.6670206764518e-10
  24      0.24274376177187
  25      0.67433665550797
  26     -0.16529009658314
  27    -0.022975434499054
  28      0.32479365776379
  29    -2.411360569669e-10
  30      0.39909646335729
  31     -0.34755583594069
  32    -1.7927411744672e-09
  33      0.22264862027496
  34    -0.017263660370798
  35    5.7406454194331e-11
  36     -0.59857255202974
  37    0.0060625468248183
  38     0.038570047003014
  39    -1.39767923804e-10
  40      0.10030732642192
  41    1.3969033722034e-11
  42      0.39223493839959
  43    -0.063490052920667
  44    -1.1813854599819e-09
  45     -0.04936566836873
  46    2.019381315768e-10
  47     -0.32390358951211
  48       0.5032291093038
  49     -0.91009712332421
  50     0.064506972517575
  51    1.2020519136004e-09
  52    -0.092904499607926
  53      0.23028141013277
  54    -1.5441637973304e-09
  55     -0.24613379057233
 Sym= A
 Ene=              13
 Spin= Alpha
 Occup=    0.00000
   1     0.075277184393505
   2      0.16486895017174
   3     -0.86734970375024
   4        1.792161542971
   5     -0.11443406460513
   6    -1.5557125681327e-09
   7     -0.45756742087033
   8     -0.21980845153409
   9    -4.826375062408e-09
  10      0.22109691429283
  11      0.12604107551601
  12    -1.9402578636377e-09
  13     0.017142662632417
  14    -0.0011651823563488
  15       0.2674347238809
  16    -4.4143575731295e-09
  17     -0.15721863538259
  18    -5.5826894804805e-10
  19    0.0080651210819833
  20     -0.29783581360808
  21    8.8381073119657e-09
  22    -0.083589471556522
  23    2.2615826782689e-09
  24     -0.13808335146655
  25     -0.43082856303634
  26      0.25064411173062
  27     -0.49220766771902
  28     -0.16083771665056
  29    -2.3729706508998e-09
  30     -0.38618479893471
  31    -0.020183518389648
  32    1.0859912972049e-08
  33        0.410952512427
  34     0.084896567456543
  35    -7.1510138149965e-09
  36     -0.94157221544302
  37    -0.083895636128932
  38    -0.031793254144693
  39    8.7228026125593e-10
  40     -0.21711064724473
  41    -4.8682272749762e-10
  42      0.11576126764614
  43      0.32363856727245
  44    5.7826200168825e-09
  45     -0.15420619587992
  46    3.2452386080473e-09
  47     -0.19952499580279
  48      0.51330409123509
  49     -0.90266873671988
  50    -0.091137362252969
  51    -6.262349973898e-09
  52      0.10191564890888
  53     0.058598225931914
  54    8.3111722405878e-09
  55     0.083356030170031
 Sym= A
 Ene=              14
 Spin= Alpha
 Occup=    0.00000
   1     -0.53567614389259
   2     -0.90024448398556
   3        4.800103147293
   4       3.7852216413927
   5     0.031721335741698
   6    -3.0941461877244e-07
   7    -0.055600736217989
   8      -1.0027611257465
   9    5.8522987669525e-07
  10      -3.5504087945329
  11    -0.082237280035268
  12    -2.9541607191298e-06
  13     -0.68493606064244
  14      0.21203884030262
  15     0.089686090299412
  16    -3.0460005450986e-07
  17     0.065404424833516
  18    -7.6018468068021e-07
  19       1.0782939310862
  20      0.60466935410799
  21    9.0843028690581e-07
  22      0.10365827029568
  23    6.0548760910769e-07
  24       0.3114278385728
  25      0.63138707101472
  26      -6.5711967361123
  27      -2.7386954158112
  28     -0.42126781452591
  29    1.7325885585923e-08
  30      -1.2055552778021
  31     -0.82967290583539
  32    8.0002370486909e-07
  33      -2.3175739757622
  34     -0.47334722704196
  35    1.3119698823956e-06
  36     -0.63428158903596
  37     -0.29040686776705
  38     -0.13422507712103
  39    -2.2803289183179e-07
  40     0.085538118651325
  41    6.3608883129207e-08
  42     -0.54404124310457
  43     -0.41118702664326
  44    4.582473465699e-07
  45    -0.025849295046199
  46    1.3525497060471e-07
  47     0.096164262602142
  48      0.69977449208549
  49      0.12687683434086
  50     0.026175892827532
  51    -4.608299975837e-07
  52    -0.017877003839505
  53     -0.29693562372407
  54    5.4936853548138e-07
  55     -0.20189534673179
 Sym= A
 Ene=              15
 Spin= Alpha
 Occup=    0.00000
   1     0.017725774132102
   2     0.063674065406047
   3      0.12449699052791
   4      0.84541372961563
   5     -0.94414871556247
   6    1.492260712108e-07
   7      0.36933109769275
   8       1.8157248654477
   9    -7.3743746304709e-07
  10      -1.0241532039959
  11     -0.19785820309908
  12    -1.0418125296555e-05
  13      0.06817605732115
  14    -0.052800574752503
  15       0.1184961829692
  16    -6.1878919098372e-08
  17     0.029949791271607
  18    -6.8092082214468e-08
  19      0.37399333664806
  20     -0.38294073997188
  21    1.0158283139003e-06
  22     -0.17689131613046
  23    8.9376366891584e-07
  24    -0.039875541518158
  25    -0.079311935955352
  26     -0.15246976309844
  27      0.22372017087555
  28    -0.053784332853074
  29    -8.755649304309e-08
  30    -0.0078530238933728
  31      -0.8771189469501
  32    -5.0645523187052e-07
  33     -0.17511390472723
  34      0.13620795240208
  35    7.4091797851995e-06
  36      -0.4904948520435
  37    -0.050721699623106
  38     0.062071250812238
  39    -5.9464858368036e-07
  40     0.062888196757194
  41    3.5509472186004e-07
  42      0.41538048163812
  43     -0.62704449230781
  44    5.2599995749906e-06
  45     -0.26161326813261
  46    -7.408821551091e-07
  47     0.037416716282092
  48     -0.72440311739723
  49     -0.35939054639024
  50      0.07207689343806
  51    9.5696821777689e-07
  52     0.023167787182869
  53      0.28553018115555
  54    3.1454890542381e-06
  55    -0.033815494967222
 Sym= A
 Ene=              16
 Spin= Alpha
 Occup=    0.00000
   1    0.0033035529189423
   2    0.0081718557377533
   3    -0.016201725703964
   4      0.23351724483616
   5    -0.0015113703930974
   6     -0.18480168675645
   7    -0.0055066499658552
   8     -0.01135173605045
   9     -0.25613721702991
  10    0.0092902102785183
  11     0.039395530604816
  12       2.0311085322075
  13    -0.065897040921658
  14    -0.0025004839206314
  15    0.0041820970655876
  16      0.01398531574317
  17    -0.0018845647765743
  18    0.0020944212877502
  19    -0.0023442769313789
  20    -0.0053257351505487
  21    -0.040108518760861
  22    -0.0014915531868524
  23    -0.0094164174211558
  24    -7.362611470241e-05
  25    0.0010154728635121
  26    -0.0025069470289763
  27     -0.39878225551493
  28    -0.0021574524854575
  29     0.081303866363861
  30    0.0046283981900836
  31    -0.017535489147626
  32     0.020097491537298
  33    -0.0081951038915921
  34    -0.082638315007636
  35      -1.6249176523277
  36    -0.048551365303855
  37    0.0046329559441856
  38    -0.00027634125563382
  39    0.0048993560494527
  40    -0.003049578228318
  41    0.0039860973039855
  42    0.0033284704625125
  43    -0.00073405616049096
  44    -0.056974571228735
  45    -0.0019270335275819
  46    -0.027513711597229
  47    0.0091443143345251
  48     0.069432902004887
  49      0.12003421361711
  50    -0.0016828939839375
  51    -0.0032832283280935
  52    -0.0012221704924286
  53     -0.03878188065123
  54    -0.008451193765499
  55     0.016933365225088
 Sym= A
 Ene=              17
 Spin= Alpha