[Molden Format]
made by pyscf v[2.13.1]
[Atoms] (AU)
O   1   8     0.21099695469856     0.00000000000000     2.15462460678861
N   2   7    -0.44776862100326     0.00000000000000    -0.03589262653049
H   3   1     1.18163474748449     0.00000000000000    -1.17386889907833
[GTO]
1 0
 s    8 1.00
                 11720  0.00070964594651845
                  1759  0.0054672722921914
                 400.8   0.027823118610189
                 113.7    0.10474773971146
                 37.03    0.28292084635691
                 13.27    0.44849523869833
                 5.025    0.27081688521277
                 1.013    0.01545029160744
 s    8 1.00
                 11720  -0.00031444341168873
                  1759  -0.0024821376810179
                 400.8  -0.012316355381583
                 113.7  -0.050538917343672
                 37.03   -0.13938490331632
                 13.27   -0.32507749481778
                 5.025   -0.22984830758785
                 1.013     1.0953793467883
 s    1 1.00
                0.3023                   1
 s    1 1.00
               0.07896                   1
 p    3 1.00
                  17.7   0.062679166281506
                 3.854    0.33353656587936
                 1.046    0.74123964163973
 p    1 1.00
                0.2753                   1
 p    1 1.00
               0.06856                   1
 d    1 1.00
                 1.185                   1
 d    1 1.00
                 0.332                   1

2 0
 s    8 1.00
                  9046  0.00069961741342552
                  1357  0.0053860546299287
                 309.3   0.027391021189057
                 87.73    0.10315059198201
                 28.56    0.27857066331743
                 10.21    0.44829484945412
                 3.838    0.27808592839527
                0.7466   0.015431561233271
 s    8 1.00
                  9046  -0.00030499009595337
                  1357  -0.0024080263785077
                 309.3   -0.01194444872518
                 87.73  -0.048925992909017
                 28.56   -0.13447272472496
                 10.21   -0.31511257770011
                 3.838   -0.24285783254964
                0.7466     1.0943822068542
 s    1 1.00
                0.2248                   1
 s    1 1.00
               0.06124                   1
 p    3 1.00
                 13.55   0.058905676772132
                 2.917    0.32046110671427
                0.7973    0.75304206179207
 p    1 1.00
                0.2185                   1
 p    1 1.00
               0.05611                   1
 d    1 1.00
                 0.817                   1
 d    1 1.00
                  0.23                   1

3 0
 s    3 1.00
                 13.01   0.033498726389998
                 1.962    0.23480080117413
                0.4446     0.8136829578829
 s    1 1.00
                 0.122                   1
 s    1 1.00
               0.02974                   1
 p    1 1.00
                 0.727                   1
 p    1 1.00
                 0.141                   1

[5d]
[7f]
[9g]

[MO]
 Sym= A
 Ene=               0
 Spin= Alpha
 Occup=    1.00000
   1    -0.0029150170449491
   2    -0.018437762301847
   3    -0.017916279245054
   4    -0.012618764255214
   5      0.52200621126589
   6    3.5860545966083e-14
   7    -0.091395096576542
   8      0.36502520751648
   9    2.1684775408797e-14
  10    -0.070566648026891
  11      0.12532619721945
  12    3.1042314358229e-15
  13    -0.022536625190077
  14    -0.00057735941936309
  15    -0.0024787494243581
  16    -1.6910550584549e-15
  17    -0.00076727657832093
  18    -4.8397596230529e-16
  19    0.0011075860992721
  20    -0.0015088795679791
  21    -2.0185729260415e-15
  22    -0.0015480784966521
  23    -3.8236462884561e-16
  24    -0.00046603459407687
  25      0.12526522444485
  26      0.27043555906962
  27      0.16454219238627
  28     -0.36558519601081
  29    2.9699795519809e-14
  30    -0.042752159281439
  31      -0.2235885871663
  32    1.5659030991325e-14
  33    -0.031158354090381
  34    -0.074979289518272
  35    6.3287240334998e-16
  36    -0.0037379029278655
  37    -0.010561780198848
  38     0.023082469269143
  39    2.2949929683106e-15
  40    -0.010731022884022
  41    1.3744828061861e-15
  42    -7.1465179396457e-06
  43    0.0023596365216668
  44    -1.584825595475e-16
  45    0.00062909523309417
  46    7.7971996494824e-16
  47     -0.28059758532806
  48     -0.18899733123804
  49    -0.037970774738754
  50    0.0031692443141589
  51    9.4939797697116e-16
  52    -0.0094334298990477
  53    -0.018440046695926
  54    4.1169752329581e-17
  55     0.018999544338902
 Sym= A
 Ene=               1
 Spin= Alpha
 Occup=    1.00000
   1    -0.0046318458242911
   2    -0.0072015254821863
   3     0.027132016393895
   4     0.052127888457244
   5     -0.33088757463553
   6    -1.7239824385812e-11
   7      0.28596783049866
   8     -0.19812130217229
   9    -1.0469217358193e-11
  10      0.15079789041232
  11    -0.024131599289387
  12    -1.1698737749391e-12
  13    0.0066361142428797
  14    -0.013267217314082
  15     0.013537766978788
  16    8.4052566889147e-13
  17    0.0041208763864266
  18    2.2265465315461e-13
  19    -0.0064405019173116
  20     0.015972058365303
  21    9.5734199816989e-13
  22     0.001940269860894
  23    2.0493108855187e-13
  24    -0.00050637635559964
  25      0.17729778415784
  26      0.25989322390709
  27     0.022628722802327
  28     -0.37994603486227
  29    -1.4330501072061e-11
  30     -0.16566333637232
  31     -0.18093027559285
  32    -7.4661700893286e-12
  33    -0.084866950474229
  34    -0.017364805881424
  35    -5.7820928504936e-13
  36    -0.012466752315523
  37    0.0062089372043029
  38    -0.030756853184733
  39    -1.0968793217062e-12
  40    -0.018890044159044
  41    -6.6267207904633e-13
  42    0.0020337345880875
  43    -0.0040309658463557
  44    6.6433802440608e-14
  45    -0.0078019067888348
  46    -3.9860148077188e-13
  47    -0.039684995785097
  48    -0.011393790280815
  49    -0.0017277186640067
  50    -0.005459297819655
  51    -4.0761420374529e-13
  52    -0.0081905944078268
  53    -0.0061286032005996
  54    -1.0609178396517e-13
  55    -0.0085034953216808
 Sym= A
 Ene=               2
 Spin= Alpha
 Occup=    1.00000
   1    0.0067199272006938
   2       0.1152687173066
   3      0.19073631672746
   4     0.035232811264303
   5     -0.12060249208545
   6    -8.866559347135e-12
   7     0.009036148574862
   8    -0.081403433077872
   9    -5.3834593858466e-12
  10    -0.017565466339964
  11    -0.0022980472555795
  12    -6.0209066431802e-13
  13    -0.0088557374506183
  14    -0.0076406675950832
  15    0.0064991904945735
  16    4.3234403011504e-13
  17    0.0015697927178598
  18    1.1457294732584e-13
  19    -0.011517462253165
  20     0.011155126046684
  21    4.9198749690638e-13
  22    -0.0026516933054482
  23    1.0514709285259e-13
  24    -0.0050954073237368
  25     -0.32278475898809
  26     -0.29784893703561
  27    -0.027421904041176
  28     -0.19664608387026
  29    -7.3699273939426e-12
  30      0.27818879152394
  31    -0.031132152790109
  32    -3.8403985357562e-12
  33     0.035160128601838
  34    -0.0054453359576033
  35    -2.9640077934179e-13
  36    -0.0031147112360619
  37     0.017348397281121
  38     0.011997832175896
  39    -5.6409845433289e-13
  40    -0.0095745615053779
  41    -3.4083440150904e-13
  42    -0.023642886841403
  43    -0.023376184208001
  44    3.3570541736189e-14
  45     0.021582624951552
  46    -2.0504246369623e-13
  47     -0.36378914146667
  48    -0.081734006807971
  49    -0.0025352116984884
  50     0.032470286045099
  51    -2.0962937268958e-13
  52    -0.019696817051977
  53    0.0031387210673469
  54    -5.4955392371824e-14
  55    -0.0074403353379421
 Sym= A
 Ene=               3
 Spin= Alpha
 Occup=    1.00000
   1    -1.9045064072998e-12
   2    -3.5685295275474e-11
   3    -6.4598894168505e-11
   4    -3.2582038621085e-11
   5    -5.7487783182522e-11
   6      0.48293643377382
   7    -7.6669956821863e-11
   8    -2.9891740846934e-11
   9      0.29325120273613
  10    -3.0197570167791e-11
  11    -5.0965908846076e-13
  12     0.032802356604109
  13    2.0128280959217e-12
  14    2.8305304273784e-12
  15    3.5172916166305e-12
  16    -0.023547370697403
  17    9.9865900679698e-13
  18    -0.0062388229740347
  19    -4.0396863342693e-13
  20    2.292948080308e-12
  21    -0.026807233320924
  22    5.247954140954e-13
  23    -0.0057340089517254
  24    1.7995971572031e-12
  25    4.4161949761669e-11
  26    4.6919917392905e-11
  27    2.0552779875084e-11
  28    -2.5464850142166e-11
  29      0.40143086921762
  30    5.9751687188736e-11
  31    -8.0325825528817e-12
  32      0.20915817645098
  33    2.1266539840063e-11
  34    1.119960062622e-12
  35     0.016157129053395
  36    4.9769778302941e-12
  37    4.3502105282141e-12
  38    1.5561635980793e-12
  39      0.03072491661808
  40    -1.840125334708e-12
  41     0.018563257983275
  42    -2.7814303640922e-13
  43    8.5765307325809e-13
  44    -0.0018467998350396
  45    6.236686319149e-13
  46     0.011167004887345
  47    -2.5943183733611e-11
  48    -1.6218636954076e-11
  49    -1.7527817966227e-12
  50    7.9516745051421e-13
  51     0.011418005103861
  52    -2.2893885020973e-13
  53    1.7618783590135e-12
  54    0.0029799986058222
  55    -2.7357099327335e-12
 Sym= A
 Ene=               4
 Spin= Alpha
 Occup=    1.00000
   1    -0.014618156541798
   2     -0.19684876322901
   3     -0.35704927467934
   4     -0.17834704807341
   5     -0.21974909643817
   6    -9.5220200648464e-11
   7     -0.43986911766417
   8     -0.10784597506975
   9    -5.7820436255125e-11
  10     -0.17808275628964
  11    0.0020078469867224
  12    -6.4670900466852e-12
  13    0.0097084245466704
  14     0.017295031758373
  15     0.014675110801945
  16    4.6428458355422e-12
  17    0.0042072904773517
  18    1.2301050325641e-12
  19    8.7582639382257e-05
  20    0.0076602466459625
  21    5.2855828683152e-12
  22    0.0025701905768173
  23    1.1305818916634e-12
  24    0.0091559861149786
  25      0.21918144152536
  26      0.21808905754611
  27      0.10267375402368
  28     -0.04298040255942
  29    -7.9149623401255e-11
  30      0.30439066166126
  31    -0.0051206438379865
  32    -4.1239261830092e-11
  33      0.11999136417329
  34    0.0092448564056543
  35    -3.1857555419451e-12
  36     0.027867031463549
  37     0.018982294489859
  38     0.012090764769853
  39    -6.0579711248351e-12
  40    -0.0050320720137026
  41    -3.6601010521503e-12
  42    0.00058343439745739
  43    0.0073152364525128
  44    3.6421767964491e-13
  45    0.0026184073928631
  46    -2.2016495030894e-12
  47    -0.090869175388106
  48    -0.072184689538404
  49    -0.0083104332059706
  50     0.002082839495786
  51    -2.251291408803e-12
  52    0.0020416157601312
  53    0.0095937136184212
  54    -5.8772776703187e-13
  55    -0.011530681105209
 Sym= A
 Ene=               5
 Spin= Alpha
 Occup=    1.00000
   1     0.047617343785841
   2      0.43038740463337
   3      0.47119644076212
   4     0.039089049155698
   5    -0.031233878432707
   6    -1.4345101664686e-12
   7      -0.1075753748519
   8    -0.012742963013762
   9    -8.7150858609748e-13
  10    -0.058715172762483
  11    0.0017346230610707
  12    -9.7342092415567e-14
  13    0.0051536197625245
  14      0.01160084100926
  15    0.0070909552980961
  16    6.9961530254173e-14
  17    -0.0023797793336999
  18    1.851194518245e-14
  19    0.0085845799924866
  20    0.0032806819371114
  21    7.9643433879628e-14
  22    -0.00086248766086631
  23    1.7183184442394e-14
  24    -0.0032228317965713
  25      0.18748523410762
  26     0.032957024031846
  27    -0.0065816843371321
  28     0.053397784101777
  29    -1.1923906602485e-12
  30      0.18275291320351
  31    -0.0056591727462456
  32    -6.2123100602232e-13
  33    -0.013693124462203
  34    0.0024478872312494
  35    -4.8089602693444e-14
  36    -0.0085559779225164
  37     0.022637559766768
  38     0.017720437212512
  39    -9.1282791930738e-14
  40    0.0004670188817562
  41    -5.5143207936674e-14
  42    -0.013117051708153
  43    -0.0059875928170017
  44    5.8451376634574e-15
  45    -0.0038878105484099
  46    -3.3208972518202e-14
  47     0.016364152833378
  48    -0.033014229423386
  49    -0.0016948497102203
  50    -0.0056952973472329
  51    -3.3874126197445e-14
  52    0.0077116906103772
  53     0.011407089817749
  54    -8.736351731888e-15
  55    -0.0072028078472393
 Sym= A
 Ene=               6
 Spin= Alpha
 Occup=    1.00000
   1       1.0011304811541
   2    -0.014502433791009
   3    -0.071341530986883
   4    -0.015959229835013
   5    -0.0024028310777185
   6    -4.2507918762358e-13
   7    -0.0034372336624207
   8    0.0035241279309277
   9    -2.5845338180582e-13
  10     0.018383614952538
  11    0.00067938997263115
  12    -2.9125288877733e-14
  13    0.0015942738297082
  14    -4.6135541281821e-05
  15    -6.7063978627832e-06
  16    2.067732089158e-14
  17    0.00019450948688661
  18    5.4490484960343e-15
  19    -0.0044620528239379
  20    -0.0020204157099298
  21    2.3930066134218e-14
  22    -6.6809398854954e-05
  23    5.1015908057006e-15
  24     0.086290249198619
  25    -0.0054424284420278
  26     0.028343610714438
  27    0.0090747114433376
  28    -0.0025512604825553
  29    -3.5335056395216e-13
  30    -0.0049740073828263
  31    0.0058326039429469
  32    -1.8370911678627e-13
  33     0.023451975106347
  34    -2.5167399380619e-05
  35    -1.4087132742976e-14
  36     0.003283460387983
  37    -0.0011282647993619
  38    -0.001232682771382
  39    -2.70380421349e-14
  40    6.648529795733e-05
  41    -1.6334661980064e-14
  42     0.005965299868183
  43    0.0045633803831934
  44    1.8892077581792e-15
  45    0.00085190897632863
  46    -9.7034717417211e-15
  47    -0.0016851072787945
  48    0.0053969128700465
  49    -0.00032865733127546
  50    0.00061381088960957
  51    -1.0064584220148e-14
  52    -0.0010467494686003
  53    -0.0023638366295257
  54    -2.6520689505047e-15
  55    0.0005551444987765
 Sym= A
 Ene=               7
 Spin= Alpha
 Occup=    1.00000
   1    -0.086148522573605
   2    0.0023123157536511
   3    0.0091304125153117
   4    0.0037199089709365
   5    0.00038590394814543
   6    -1.9026266052296e-14
   7    0.0019026190079351
   8    -5.7893488843369e-05
   9    -1.424171120963e-14
  10    -0.00020138149202202
  11    -0.00024953438775153
  12    -3.2771906599208e-15
  13    -0.00063067295741533
  14    -0.0008903424862338
  15    -0.00044271198856251
  16    1.5151958808029e-16
  17    -6.7241829930037e-05
  18    -5.6850555077304e-18
  19    -0.0009480581504109
  20    -0.00073487886151609
  21    3.9883727675975e-15
  22    -0.00028254226418521
  23    9.3028456268268e-16
  24       1.0019486414523
  25     0.010780087747425
  26     -0.02491592684791
  27    -0.0084700863237595
  28    0.0019624152340266
  29    -1.5795013929625e-14
  30    0.0026596292590453
  31    -0.0055320339658094
  32    -4.6579302436987e-15
  33    -0.0017011973441558
  34    -0.0018595024812258
  35    9.216110658718e-16
  36    0.00020607872814739
  37    0.0010197095664211
  38    8.8499650741526e-05
  39    -1.0535744308626e-15
  40    0.0003219718559741
  41    -6.8979592399025e-16
  42    -0.0022340754052546
  43    -0.00085612186247024
  44    2.4706053490195e-15
  45    -0.00051116958730256
  46    6.7600759947827e-16
  47     -0.00147628046871
  48      0.01291940846922
  49    0.0015402004538817
  50    0.0012029422981624
  51    -5.7116339658175e-16
  52    -0.00058233266763604
  53    -0.0047540045236116
  54    -5.2831915643785e-16
  55    0.0032815611031574
 Sym= A
 Ene=               8
 Spin= Alpha
 Occup=    0.00000
   1    0.00082234931858577
   2      0.11873746809247
   3      0.53403119143311
   4       3.4793722234015
   5    0.0064187759387339
   6    -3.9605782995393e-14
   7    -0.027528728804636
   8    -0.046959868498518
   9    -7.3120319631574e-14
  10     -0.30929494115326
  11     -0.38607161784823
  12    -1.507328709286e-13
  13      -1.0213176859697
  14    -0.0013987595844606
  15    0.0011096234287917
  16    -2.7708582781463e-15
  17    -0.0049771436763917
  18    1.6577424955946e-14
  19     0.063116892357402
  20     0.029987145488701
  21    1.0323781924054e-14
  22    0.0065497175634449
  23    2.1076289335462e-14
  24    0.0058879026405657
  25    -0.038032192936688
  26     -0.47226584612674
  27      -3.5449994334469
  28    -0.057289467398903
  29    1.0138973673164e-13
  30    -0.042173664533769
  31     -0.12411526175722
  32    1.3666374309244e-14
  33     -0.45753961755096
  34     -0.38199614188889
  35    6.3714795759461e-14
  36        -1.80976153454
  37     0.012482562767551
  38    0.0028230417766941
  39    -2.543247111541e-15
  40    -0.00032231700799152
  41    4.5553915658001e-14
  42    -0.064057422158638
  43     -0.06289469809585
  44    -7.3387763799205e-15
  45    -0.0066704908139321
  46    5.5163034426377e-14
  47    -0.0033406594496123
  48     -0.16560514514981
  49      0.24481252644702
  50    -0.0041519577581833
  51    1.5146550467981e-14
  52    -0.010515167977794
  53     0.087337973440268
  54    1.2102896950286e-13
  55      -0.1391837685971
 Sym= A
 Ene=               9
 Spin= Alpha
 Occup=    0.00000
   1    -0.019649478784243
   2     -0.08236594992227
   3      -0.1767103625918
   4      0.92065404023588
   5     0.027023750015783
   6    -7.6239464783889e-11
   7     -0.16900880720751
   8    -0.051798602425752
   9    -6.2116904349676e-11
  10     -0.36189456779026
  11     -0.01574810128011
  12    -2.8826168741625e-11
  13      0.80854455556947
  14    -0.015481209055246
  15    -0.081454213351952
  16    -1.4430565023248e-12
  17     0.085589184747363
  18    3.4514708728727e-12
  19     0.058618714200626
  20    -0.021827419356707
  21    5.4178968874786e-14
  22     0.057843062146777
  23    2.0707868119283e-12
  24    -0.043855769793334
  25     -0.19969049268505
  26     -0.54137103079973
  27       0.1389252309617
  28    -0.034298861224809
  29    8.9493429257886e-11
  30     0.085836587454863
  31    -0.076039199705791
  32    6.6545894703172e-11
  33    -0.052762607251024
  34     -0.13269799860083
  35    2.5538584544889e-11
  36     -0.85990344559102
  37    -0.021016499325922
  38    -0.021273944180621
  39    -3.0897665159987e-12
  40     0.048176270381397
  41    5.0818851229166e-12
  42      0.16869623223734
  43     0.013591966786474
  44    -1.5922640875809e-12
  45    0.00097607121012957
  46    3.7000476626619e-12
  47    -0.0032277825069162
  48      0.22819179416508
  49      0.25329890387129
  50     0.013149161751584
  51    3.2648254386324e-12
  52     -0.02272818669102
  53     -0.15657833057833
  54    3.3820647925371e-12
  55     0.082000200418238
 Sym= A
 Ene=              10
 Spin= Alpha
 Occup=    0.00000
   1     0.016111383190077
   2     0.034547636203768
   3      0.17288916648427
   4      -1.3915084824027
   5      0.10363164321654
   6    6.4263126330103e-12
   7    -0.016329043195934
   8     -0.15011097651986
   9    7.3270556376508e-12
  10      0.12941244785349
  11      0.18702444503185
  12    2.9702219667959e-12
  13      0.12396525298283
  14     0.032790087974288
  15      0.01617519441568
  16    6.5728129989716e-13
  17    -0.062562809071279
  18    -4.206429536323e-12
  19    -0.022933198647564
  20     0.052463190222643
  21    8.6454602295668e-13
  22    -0.063676897025112
  23    -2.9857353970728e-12
  24    -0.057906420863512
  25     -0.28188420374424
  26      -0.5760933956101
  27       1.2422868044991
  28     -0.42837873734944
  29    -1.5652950137871e-11
  30      0.39737846930065
  31     -0.23849769744618
  32    -7.498209379518e-12
  33      -0.1208726064208
  34     0.057626460890832
  35    2.7003220395573e-12
  36      0.27933467926991
  37     -0.04625812110403
  38    -0.00013634544812646
  39    3.9750780733642e-12
  40    -0.086600422887246
  41    -2.7283038530873e-12
  42    -0.037922829497983
  43    -0.071748832301375
  44    2.7641490076214e-12
  45    -0.025995116882416
  46    -1.1192671320305e-12
  47      0.43483903466842
  48      0.89781785251354
  49     -0.29776165232177
  50     0.060867460121221
  51    -3.3458313720164e-13
  52    -0.079573067235003
  53     0.063410427057224
  54    3.1787379773555e-12
  55      0.68607248493795
 Sym= A
 Ene=              11
 Spin= Alpha
 Occup=    0.00000
   1    -2.2565295964596e-12
   2    -5.4955337718099e-12
   3    5.0111464863147e-11
   4    -7.3814871765387e-11
   5    -5.8995464224458e-11
   6    -0.085050689615299
   7    1.4843816201835e-12
   8    6.0194765758191e-11
   9     -0.35528034391387
  10    7.5540886848627e-11
  11    -1.1105108202242e-10
  12     -0.20378159604651
  13    -1.0819498406539e-10
  14    3.2362802620967e-11
  15    -4.6312044367673e-11
  16    -0.065769487749308
  17    -4.1513794229756e-11
  18      0.32827474624156
  19    -9.5732361201464e-12
  20    3.1898373564439e-12
  21    -0.049241711560827
  22    -2.2966463442933e-11
  23      0.26338545817344
  24    9.1990695098017e-12
  25    1.8278643726816e-11
  26    1.3002148017792e-12
  27    5.5809648588801e-11
  28    1.6724889849769e-11
  29      0.61762374623567
  30    9.442591728456e-13
  31    -1.3697765558645e-11
  32      0.26248638752392
  33    -4.5518911259651e-11
  34    2.8535633856157e-11
  35    -0.092568116138253
  36    1.8912136965419e-11
  37    -2.9047321101018e-11
  38    4.4529087374133e-11
  39     -0.10878767378048
  40    -5.6088829368967e-12
  41      0.16148317399308
  42    -3.0576601460544e-11
  43    -7.6476507380202e-12
  44    -0.035588093772899
  45    -6.3079611751065e-12
  46     0.019539900534677
  47    -2.0809841512856e-11
  48    -1.327176779022e-11
  49    -7.6170360803564e-11
  50    -3.8347454556053e-12
  51    -0.0080733177824512
  52    -7.3895994550687e-12
  53    6.4196854994599e-11
  54     -0.21408373110194
  55    1.0110693485296e-10
 Sym= A
 Ene=              12
 Spin= Alpha
 Occup=    0.00000
   1     0.028101222138281
   2     0.081747372346613
   3     -0.18973508062745
   4     -0.19302975520914
   5      0.37841100850912
   6    4.3289015685834e-11
   7      0.11854272537802
   8     -0.35878933847985
   9    -3.6537884129273e-11
  10     -0.20043770467167
  11      0.68065031046896
  12    -2.6558090544251e-11
  13      0.14101776321717
  14     -0.17961912957876
  15      0.33920399274738
  16    -1.7505608522292e-11
  17      0.19888649403955
  18    7.924540845102e-11
  19     0.030290719475803
  20    -0.00086979708525722
  21    -1.5092323497533e-11
  22      0.10464920901294
  23    6.3744516833878e-11
  24     -0.03454336979354
  25    -0.0059922903880812
  26      0.28868154615306
  27     -0.41146946979821
  28     -0.13750985005584
  29    7.7019048548544e-11
  30     0.012006669118485
  31       0.1052753191161
  32    7.7414233554769e-12
  33       0.3134559560527
  34    -0.061228991542653
  35    -4.2300387471923e-11
  36      0.41662494616668
  37      0.17159234221637
  38     -0.25984826984429
  39    -2.7185468184361e-11
  40    -0.029921523165068
  41    3.8751643389501e-11
  42     0.065119547294801
  43     0.022589707414351
  44    -9.9697937332129e-12
  45    0.0058890168231324
  46    3.6422501457772e-12
  47      0.18247519093209
  48     0.058602283053119
  49      0.27583527064401
  50     0.025113934236952
  51    -4.403785656318e-12
  52     0.048880743990878
  53     -0.27358722101156
  54    -5.3726880425094e-11
  55     -0.58443056815627
 Sym= A
 Ene=              13
 Spin= Alpha
 Occup=    0.00000
   1    -0.084359583600853
   2       -0.237566997247
   3     -0.38493091563452
   4       1.1669906118351
   5     -0.67694917948816
   6    3.9347804783563e-12
   7     0.048685537700221
   8      0.58308633469467
   9    -6.3518987541726e-13
  10     0.072489778183401
  11     -0.12610994187005
  12    -6.6116011900876e-12
  13     -0.19091943759747
  14     -0.10422657494079
  15      0.25885542180791
  16    1.2424477627116e-12
  17     0.036436162084389
  18    2.0766791375565e-13
  19     -0.15556922022398
  20      0.24436911164527
  21    -2.8888131546919e-13
  22     0.024135026818043
  23    1.032389922454e-12
  24    -0.026288196599184
  25    -0.074052323003897
  26    -0.052962162168551
  27      -1.2616185000383
  28    -0.064236403621695
  29    -1.2138910232463e-12
  30     -0.12983779064674
  31      0.23564714528848
  32    2.274422401486e-12
  33      0.35849632939994
  34      -0.2509386237957
  35    4.1557656032084e-12
  36     -0.44058993321565
  37       0.1364382374105
  38     -0.17737389360879
  39    -3.388877096831e-12
  40     -0.10355924651216
  41    3.2764080790844e-13
  42     0.048916623158339
  43      0.38977652476164
  44    -2.3627606983444e-12
  45     0.013730679730004
  46    -1.1773510970121e-12
  47    -0.041350509798968
  48      0.51884423433521
  49      0.14642163515219
  50    0.0036246768763767
  51    5.2519034894639e-14
  52     0.016642830967675
  53     -0.21098956814803
  54    -1.694519927492e-13
  55      0.25739007534674
 Sym= A
 Ene=              14
 Spin= Alpha
 Occup=    0.00000
   1      0.11337689032892
   2      0.32968876794446
   3      0.44524911488067
   4      -1.8842562413274
   5     -0.66830488609166
   6    2.8585754818933e-11
   7      0.21558157968196
   8       2.2008344755597
   9    2.8198289183457e-14
  10      -0.8766667579703
  11      0.13750135298527
  12    9.7189181848143e-12
  13      0.63083797498659
  14    -0.013949392518182
  15     0.046770942733635
  16    -5.8207264764727e-12
  17      0.11271491414934
  18    1.3382719570723e-11
  19      0.50533800299085
  20      -1.0335861924659
  21    -1.3395534475581e-12
  22     -0.21448971912588
  23    1.0889803876174e-11
  24    -6.2480532788879e-05
  25     0.013987637963405
  26      0.69465058127699
  27       2.3890304349269
  28     -0.13294011690692
  29    -9.4411671441831e-12
  30      0.17002847189577
  31      -1.4850006732325
  32    -1.2770934494287e-11
  33     -0.22299394335033
  34      0.61733921980859
  35    -1.7395416510521e-11
  36      0.37284182559252
  37     -0.20971358513465
  38     0.099765505003791
  39    -1.8353380064303e-12
  40      0.10864513142933
  41    6.3621702461662e-12
  42       0.6094335394568
  43      -1.3119060233803
  44    2.9771014094754e-12
  45     -0.40650836244488
  46    2.3317953030603e-12
  47      0.19204467146665
  48      -1.4591055709656
  49     -0.27261837002273
  50       0.1219642773853
  51    -1.5591115884008e-12
  52     0.068721080878316
  53      0.51505861968784
  54    -9.7837923014158e-12
  55     -0.34538556337067
 Sym= A
 Ene=              15
 Spin= Alpha
 Occup=    0.00000
   1    -0.042123936122193
   2     -0.17852266964642
   3      0.44510018300606
   4       1.7603290472948
   5     0.061761186657021
   6    -4.4666973125323e-12
   7      0.18047317219914
   8     -0.45316194394021
   9    -5.0691984545008e-12
  10      0.15697608976215
  11     -0.25186170709883
  12    -4.3933792401038e-12
  13     -0.48278799381557
  14    -0.071876443498434
  15     -0.14570513697569
  16    -7.3395226194161e-13
  17     -0.02804004634147
  18    4.5556433823906e-13
  19     -0.25159981433044
  20     0.068030376543689
  21    -2.1114371877236e-12
  22      0.02475679948387
  23    -1.0466369222528e-12
  24       0.1349666382835
  25      0.36578106099796
  26    0.0028192612330093
  27     -0.63361554679866
  28     -0.78973025241707
  29    -2.4584169000689e-11
  30      0.85914348396077
  31       1.3508336118691
  32    4.1157201686532e-11
  33      -1.1021709953063
  34    -0.0044832005115879
  35    -7.9596666876267e-13
  36     -0.44908841827818
  37      0.08453764760258
  38      0.23565413641515
  39    -1.1968940683499e-12
  40     -0.15422885526139
  41    -2.4156977071667e-12
  42     -0.44533609702668
  43      0.13014107999516
  44    -4.0554323639226e-12
  45      0.25792744029671
  46    5.0609228696669e-12
  47       0.2095441867966
  48      -1.7276106038904
  49    -0.075244123751333
  50     -0.57212380804751
  51    1.120823511383e-12
  52      0.46363916016832
  53      0.32861918611156
  54    -1.0345777849393e-11
  55     -0.66776236701695
 Sym= A
 Ene=              16
 Spin= Alpha
 Occup=    0.00000
   1    0.0013466369547191
   2     0.003305934358063
   3    -0.017671952006201
   4    -0.033891304956122
   5    0.00018261282126911
   6     -0.21883808739526
   7    0.0061210070534601
   8     0.026417648004189
   9      -0.2979868837783
  10    -0.0081745128961807
  11     0.011257641946406
  12       2.0187511449066
  13    -0.014483846264708
  14    -0.007583033634413
  15    0.0099833614967246
  16    0.0096304202534718
  17    0.0077831727622241
  18     0.021257953308524
  19    0.0018741887794766
  20    -0.010953124941586
  21    -0.042489670735775
  22    0.0026564638749475
  23    0.0072738662934264
  24    -0.00011868924779391
  25    -0.0020099224260184
  26     0.024484028438808
  27      0.13164145982199
  28    -0.0028500527185407
  29       0.1328310956284
  30    0.0025011797187249
  31     0.018837280929148
  32     0.062835104396304
  33      0.01526497489431
  34    -0.027005916301817
  35      -1.6199763948849
  36     0.028706485933639
  37    0.0045284412018997
  38    -0.0054997993432931
  39    -0.0051780246966278
  40    0.0013192188590809
  41     0.012473981263768
  42     0.012250047951706
  43    -0.0067205747660046
  44    -0.063343026561562
  45    -0.0018882086405145
  46    -0.018763233618787
  47    0.0048709159439218
  48     -0.05759580667412
  49     -0.06137055062916
  50    -0.0026241007071844
  51    -0.00045782864983738
  52    0.0069864478373356
  53      0.02805982626809
  54    -0.0087787120533111
  55     -0.04898766333783
 Sym= A
 Ene=              17