[Molden Format]
made by pyscf v[2.13.1]
[Atoms] (AU)
O   1   8     0.21099695469856     0.00000000000000     2.15462460678861
N   2   7    -0.44776862100326     0.00000000000000    -0.03589262653049
H   3   1     1.18163474748449     0.00000000000000    -1.17386889907833
[GTO]
1 0
 s    8 1.00
                 11720  0.00070964594651845
                  1759  0.0054672722921914
                 400.8   0.027823118610189
                 113.7    0.10474773971146
                 37.03    0.28292084635691
                 13.27    0.44849523869833
                 5.025    0.27081688521277
                 1.013    0.01545029160744
 s    8 1.00
                 11720  -0.00031444341168873
                  1759  -0.0024821376810179
                 400.8  -0.012316355381583
                 113.7  -0.050538917343672
                 37.03   -0.13938490331632
                 13.27   -0.32507749481778
                 5.025   -0.22984830758785
                 1.013     1.0953793467883
 s    1 1.00
                0.3023                   1
 s    1 1.00
               0.07896                   1
 p    3 1.00
                  17.7   0.062679166281506
                 3.854    0.33353656587936
                 1.046    0.74123964163973
 p    1 1.00
                0.2753                   1
 p    1 1.00
               0.06856                   1
 d    1 1.00
                 1.185                   1
 d    1 1.00
                 0.332                   1

2 0
 s    8 1.00
                  9046  0.00069961741342552
                  1357  0.0053860546299287
                 309.3   0.027391021189057
                 87.73    0.10315059198201
                 28.56    0.27857066331743
                 10.21    0.44829484945412
                 3.838    0.27808592839527
                0.7466   0.015431561233271
 s    8 1.00
                  9046  -0.00030499009595337
                  1357  -0.0024080263785077
                 309.3   -0.01194444872518
                 87.73  -0.048925992909017
                 28.56   -0.13447272472496
                 10.21   -0.31511257770011
                 3.838   -0.24285783254964
                0.7466     1.0943822068542
 s    1 1.00
                0.2248                   1
 s    1 1.00
               0.06124                   1
 p    3 1.00
                 13.55   0.058905676772132
                 2.917    0.32046110671427
                0.7973    0.75304206179207
 p    1 1.00
                0.2185                   1
 p    1 1.00
               0.05611                   1
 d    1 1.00
                 0.817                   1
 d    1 1.00
                  0.23                   1

3 0
 s    3 1.00
                 13.01   0.033498726389998
                 1.962    0.23480080117413
                0.4446     0.8136829578829
 s    1 1.00
                 0.122                   1
 s    1 1.00
               0.02974                   1
 p    1 1.00
                 0.727                   1
 p    1 1.00
                 0.141                   1

[5d]
[7f]
[9g]

[MO]
 Sym= A
 Ene=               0
 Spin= Alpha
 Occup=    1.00000
   1    0.0035843147203653
   2     -0.12261890151493
   3     -0.22149041308438
   4     -0.12943322379156
   5     -0.30039378795549
   6    -5.1797230842648e-15
   7     -0.32461418565294
   8     -0.16277038398678
   9    -3.3198545860645e-15
  10     -0.13475529003836
  11    -0.0020846144057457
  12    3.8482619957485e-16
  13    0.0052451562293874
  14    0.0089121398593926
  15     0.018157426705676
  16    2.7622763958303e-16
  17    0.0051501379188952
  18    7.0480447306895e-17
  19    -0.0065466156416672
  20     0.014687147545015
  21    2.9296660990937e-16
  22    0.0013518625963054
  23    5.6945342215242e-17
  24    0.0057375530258294
  25     0.074461979971473
  26       0.1040727688242
  27     0.083072332235951
  28     -0.20416018213422
  29    -4.0919031100668e-15
  30      0.35942129168037
  31    -0.055423279383994
  32    -2.0703965052424e-15
  33       0.1045009923688
  34    0.0012243131059375
  35    -3.9470714992774e-16
  36     0.020472500363696
  37     0.025286279513972
  38     0.010462216698135
  39    -3.0871167335427e-16
  40    -0.012446450886289
  41    -2.0647597682945e-16
  42    -0.0098324587298712
  43    -0.0050421925318736
  44    3.1725646691821e-17
  45      0.01082293445989
  46    -1.1895493153169e-19
  47     -0.25798225293895
  48     -0.10471352506078
  49    -0.0092155057345491
  50     0.015859014579747
  51    -1.3417977934903e-16
  52    -0.0090398919801648
  53    0.0082583225850508
  54    -2.3608190768345e-16
  55    -0.014693684969978
 Sym= A
 Ene=               1
 Spin= Alpha
 Occup=    1.00000
   1    -0.0050142313427837
   2    -0.069351772012262
   3    -0.081721571880056
   4    -0.025520874473898
   5      0.54746838197549
   6    9.2239555636097e-14
   7     -0.11206965444958
   8      0.37996474339381
   9    5.6002318981871e-14
  10    -0.079174791957642
  11      0.12608056105141
  12    6.8316041527045e-15
  13    -0.022895613892205
  14    -5.6160743371209e-05
  15    -0.0042339548282739
  16    -4.4369350651651e-15
  17    -0.00082982660796683
  18    -1.2063721721394e-15
  19    0.0011435144752317
  20    -0.0033899523995246
  21    -5.17361775337e-15
  22    -0.0014639247789562
  23    -1.0826039385248e-15
  24    0.00028536703424752
  25      0.10581385610857
  26      0.25774731554921
  27      0.16477166794012
  28     -0.33024549141928
  29    7.6580295321311e-14
  30    -0.051017767538125
  31     -0.20497671554001
  32    4.0059246091479e-14
  33    -0.021283874626587
  34    -0.072719605602759
  35    2.6429988356589e-15
  36    -0.0011431131602095
  37    -0.013514457327608
  38     0.023414994835438
  39    5.8894865181758e-15
  40    -0.0088843691488082
  41    3.5428473801978e-15
  42     0.002009062078152
  43    0.0042458238545695
  44    -4.3875765709759e-16
  45    0.00096770363483426
  46    2.0882190919771e-15
  47     -0.26550025486352
  48     -0.18147343092261
  49    -0.037372946423111
  50    0.0030854874790743
  51    2.2780947396378e-15
  52    -0.0087335541962614
  53    -0.018849368914747
  54    3.6051596791944e-16
  55     0.020289775572234
 Sym= A
 Ene=               2
 Spin= Alpha
 Occup=    1.00000
   1    1.4216201531049e-15
   2    5.5688172642627e-14
   3    6.4647567979404e-14
   4    -5.2652953896946e-15
   5    -1.4409362769691e-13
   6      0.48293643377382
   7    7.2673206468547e-14
   8    -9.4422667758157e-14
   9      0.29325120273613
  10    4.6222349104237e-14
  11    -2.3435954813768e-14
  12     0.032802356604109
  13    1.0751281947421e-14
  14    -2.0690484586624e-15
  15    3.1460246943229e-15
  16    -0.023547370697403
  17    5.4138087402324e-16
  18    -0.0062388229740347
  19    -2.1391468203959e-15
  20    3.0235947493037e-15
  21    -0.026807233320924
  22    3.1324879208456e-16
  23    -0.0057340089517254
  24    -1.1150850723489e-15
  25    1.1199194458084e-14
  26    -4.1453270605127e-15
  27    -2.444779374699e-16
  28    -6.310611592208e-15
  29      0.40143086921762
  30    -8.0394744802298e-15
  31    6.3519066426398e-15
  32      0.20915817645098
  33    -5.134571436677e-15
  34    1.3365327395325e-14
  35     0.016157129053395
  36    3.3165646542574e-15
  37    5.1244140870811e-15
  38    -7.6081299701391e-15
  39      0.03072491661808
  40    -1.7195446811217e-15
  41     0.018563257983275
  42    4.3418600785939e-16
  43    -3.1472064695715e-16
  44    -0.0018467998350396
  45    -8.1338656796921e-16
  46     0.011167004887345
  47    3.5090684132258e-14
  48    2.6524189452815e-14
  49    2.5212059642258e-15
  50    -1.3757983605896e-15
  51     0.011418005103861
  52    7.4435654991354e-17
  53    1.2842608881107e-15
  54    0.0029799986058222
  55    -5.0263117292674e-15
 Sym= A
 Ene=               3
 Spin= Alpha
 Occup=    1.00000
   1    -0.012390696509046
   2     -0.11310118049477
   3    -0.079607234755278
   4     0.057858186842963
   5     -0.23219719454784
   6    -6.4979672246842e-14
   7       0.3539470537452
   8     -0.14020078830469
   9    -4.0083730222434e-14
  10      0.18158331874827
  11    -0.017101918902407
  12    -3.4615958748111e-15
  13    0.0035346227837624
  14    -0.017121900227484
  15    0.0078417089550277
  16    3.0968587676026e-15
  17    0.0037180647235391
  18    7.8470045179757e-16
  19    -0.0069349836834877
  20     0.011595058951668
  21    3.9814627086065e-15
  22    0.0019702407074957
  23    9.7227189622296e-16
  24    0.00034618922515961
  25      0.13242403436434
  26      0.25673549489593
  27     0.020463247871685
  28     -0.35946785722882
  29    -5.4316789878984e-14
  30     -0.28548972111838
  31     -0.17508404575001
  32    -2.7826220754958e-14
  33    -0.098629556487699
  34    -0.021257776066568
  35    -3.5455830488928e-15
  36    -0.013018204898608
  37    -0.0056881276752955
  38    -0.035901692248059
  39    -4.1938414035477e-15
  40    -0.016536257781904
  41    -2.4972290529852e-15
  42    0.0084497240465665
  43    -6.9407017822176e-05
  44    6.5894420036325e-16
  45    -0.0093487978849835
  46    -1.4752609464058e-15
  47    0.0031542276821687
  48    0.0094736037309913
  49    -0.0015413580921796
  50    -0.0078305797090141
  51    -1.5557572137115e-15
  52    -0.0080753608042395
  53    -0.011526414295752
  54    -1.1679615763551e-16
  55    -0.0025773435198497
 Sym= A
 Ene=               4
 Spin= Alpha
 Occup=    1.00000
   1    -0.011301635908486
   2       0.2457724768892
   3        0.396814345301
   4      0.12413501785575
   5    0.00099986786920719
   6    -2.9127224592299e-14
   7      0.22137979975326
   8    -0.014941691379655
   9    -1.7185506554285e-14
  10     0.069626095384331
  11      0.00274060408104
  12    -1.958279393142e-15
  13    -0.012485342042125
  14    -0.014488028618248
  15    0.00044891451888138
  16    1.4242827233466e-15
  17    -0.0006648794230231
  18    3.9384390213669e-16
  19    -0.0092483139122622
  20    0.0076475652810388
  21    1.4771811744095e-15
  22    -0.0035585468227051
  23    2.7119207353191e-16
  24    -0.0085167010645416
  25     -0.33818208489797
  26     -0.32128294822158
  27    -0.062150675566859
  28     -0.19476989166957
  29    -2.4139146236135e-14
  30       0.1026851455578
  31    -0.053058828745192
  32    -1.2990483334467e-14
  33    -0.037763982617951
  34     -0.01463320663537
  35    -8.9512066846875e-16
  36    -0.018339306441187
  37    0.0086868648719924
  38    0.0057660737496795
  39    -1.8757171504302e-15
  40    -0.0079674398888488
  41    -1.1377258717118e-15
  42    -0.022366900436507
  43    -0.024751976394697
  44    -1.357518497367e-16
  45     0.016309680862171
  46    -7.6218093515813e-16
  47     -0.28885530165112
  48    -0.052602916972052
  49    -0.00081643232381964
  50     0.026099661656876
  51    -6.7143255914076e-16
  52    -0.018219018091861
  53    -0.001960102054744
  54    -2.860057197095e-16
  55    -0.0014001018470305
 Sym= A
 Ene=               5
 Spin= Alpha
 Occup=    1.00000
   1      0.03725589017872
   2      0.38048056148604
   3      0.41171569198897
   4     0.037916782547424
   5    -0.043786596081226
   6    -5.477761008851e-14
   7    -0.054998752694977
   8    -0.012539076178259
   9    -3.3923663546074e-14
  10    -0.028431862033469
  11     0.010043551143736
  12    -3.2458820379471e-15
  13    0.0056770702177116
  14    0.0092771403221735
  15    0.0093841861809802
  16    2.687693603207e-15
  17    -0.0013961831544199
  18    6.7185110824004e-16
  19    0.0084060484813141
  20    0.0055933438572221
  21    3.124079956926e-15
  22    -1.1985101642249e-05
  23    8.6608967995565e-16
  24     -0.02014344597621
  25      0.29237547469637
  26      0.17987405447303
  27     0.025562863801723
  28    -0.059004054785869
  29    -4.5621414328278e-14
  30     0.094145792370011
  31    -0.071996001198714
  32    -2.3581975863517e-14
  33    -0.039647602039878
  34    -0.0093987011963626
  35    -2.4186957541562e-15
  36    -0.010366459600188
  37     0.019833356180424
  38      0.01016551114856
  39    -3.5183346664123e-15
  40    -0.0042965143096124
  41    -2.1073764415173e-15
  42    -0.0083399463250128
  43    -0.002696861847296
  44    6.8665038814711e-16
  45    -0.0087598335373811
  46    -1.3120411103883e-15
  47     0.025677780224707
  48    -0.045762006702342
  49    -0.0062347384985426
  50    -0.011275342058854
  51    -1.2463091229846e-15
  52    0.0072108802470033
  53    0.0071086299572166
  54    -1.3693063894584e-16
  55     -0.00615848156078
 Sym= A
 Ene=               6
 Spin= Alpha
 Occup=    1.00000
   1      0.99789366618893
   2    -0.0022125009524753
   3    -0.052884566810429
   4    -0.010265646961908
   5    0.0010103226271776
   6    6.8038781915964e-16
   7    0.0062046727718504
   8    0.0048148467704998
   9    -3.0720812210571e-18
  10     0.021615911351583
  11    0.0005626361730153
  12    -2.8990094872927e-16
  13    0.0012243316421506
  14    -0.00049208237061619
  15    -0.00022269357794492
  16    -1.1006029177704e-16
  17    7.6821907566969e-05
  18    -5.9700363450998e-17
  19    -0.004587179125105
  20    -0.0020322006622591
  21    3.9712541685587e-16
  22    -0.00020345465177386
  23    7.0338097515916e-17
  24      0.12182597302957
  25    -0.014717956587922
  26     0.016132169756517
  27    0.0054098453546958
  28    -0.0032555981136466
  29    5.5386177462945e-16
  30    -0.0050791748175193
  31    0.0056621915055099
  32    8.0072307959875e-16
  33     0.020978096951138
  34    -0.00030939222127561
  35    2.2120431644656e-16
  36    0.0024485368912779
  37    -0.0010003816154541
  38    -0.0010620438838612
  39    5.3855500498085e-17
  40    8.5928049122051e-05
  41    3.1879352612193e-17
  42    0.0052774148576727
  43    0.0038549530302388
  44    3.4182196919145e-16
  45    0.0011258156938651
  46    1.7694251402362e-16
  47    -0.0055222413529504
  48    0.0059830636885443
  49    -9.7269221202413e-05
  50     0.001131941520872
  51    -1.9516366480451e-18
  52    -0.0013597599410855
  53    -0.0025599791993601
  54    -3.8965305077407e-17
  55    0.00075213869812499
 Sym= A
 Ene=               7
 Spin= Alpha
 Occup=    1.00000
   1     -0.12141252972402
   2    0.0081060307547686
   3     0.016696928129727
   4    0.0042007394483908
   5    -0.00054320071003626
   6    -8.8956303050861e-16
   7    -0.00042648734519352
   8    -0.00044855246183105
   9    -3.2289936562174e-15
  10    -0.0018946093428969
  11     -7.4213197312e-05
  12    -2.0259613732429e-15
  13    -0.0005367462384514
  14    -0.00065220025348551
  15    -0.00025766098958028
  16    -7.3032853788122e-16
  17    -8.8041094431226e-05
  18    -2.3902187587651e-16
  19    -0.0006125264670213
  20    -0.00057837720124476
  21    2.9701507270672e-15
  22    -0.00026359084506746
  23    7.1663409343738e-16
  24      0.99805549024541
  25       0.0175637841895
  26    -0.021247245802195
  27    -0.0079102286980235
  28     0.001487465073021
  29    -7.2032872521872e-16
  30    0.0045697593961756
  31    -0.0068819311253242
  32    3.1855047890086e-15
  33    -0.0029006684906285
  34    -0.0019760716920914
  35    1.5120555096926e-15
  36    2.0570043209165e-05
  37     0.001397393545528
  38    0.00030916139554941
  39    9.9580402342796e-17
  40    0.0002594157952193
  41    7.1943620799757e-18
  42    -0.0025100006563288
  43    -0.00096658696439365
  44    2.3997850407124e-15
  45    -0.00074375035617778
  46    1.0900854302256e-15
  47    -0.00022045538741241
  48     0.011939902060716
  49    0.0014218476878479
  50    0.00090136591846961
  51    -1.410009640085e-16
  52    -0.00035884796858098
  53    -0.0045289127443478
  54    -4.1166134452737e-16
  55    0.0031447767344737
 Sym= A
 Ene=               8
 Spin= Alpha
 Occup=    0.00000
   1    3.0490241683312e-16
   2    8.7527827843736e-16
   3    -2.978330492863e-15
   4    -1.7965964727928e-14
   5    4.7189639535149e-16
   6     -0.48573096242197
   7    -7.0864850756982e-16
   8    2.1611345515139e-15
   9     -0.36910622971091
  10    3.1532774180478e-15
  11    -1.9060501732381e-15
  12     -0.17157265481679
  13    2.7838860696844e-15
  14    -3.654377513317e-16
  15    1.1204755240882e-16
  16    0.00020003142077027
  17    1.6887194272496e-16
  18    0.0040983211655745
  19    -1.1845588756388e-15
  20    -5.8744093545414e-16
  21    0.0076936799638532
  22    -5.6709801475551e-16
  23    0.0048518631243249
  24    -5.7956033447813e-16
  25    -1.5465449765054e-15
  26    8.2057217595512e-15
  27    1.2828338868187e-14
  28    -2.0335264848717e-15
  29      0.53457844199633
  30    3.1070820416555e-17
  31    9.8385896727588e-16
  32      0.41587898998417
  33    3.8959228022926e-15
  34    4.5319991273731e-15
  35      0.17198853141432
  36     4.70705805459e-15
  37    4.7068951231669e-16
  38    -1.1729540732127e-16
  39    -0.016908501226921
  40    1.8391712232923e-17
  41     0.010599144672869
  42    1.4582294647826e-15
  43    -3.5648576342181e-16
  44    -0.013058970437135
  45    6.9224648765074e-16
  46     0.011951558960871
  47    2.6064953476549e-15
  48    -4.3753817518952e-15
  49    3.0196129404935e-15
  50    1.4515411949444e-16
  51     0.017923860991495
  52    -3.8253621907263e-16
  53    7.8135883771035e-16
  54     0.033986976450962
  55    1.2990274175754e-16
 Sym= A
 Ene=               9
 Spin= Alpha
 Occup=    0.00000
   1    1.7935945460713e-14
   2    -8.7274400047153e-15
   3    -5.0800869807166e-13
   4    -4.0564917865717e-12
   5    5.4332642257187e-15
   6     -0.24190910124087
   7    -2.2652360158064e-13
   8    1.7232897504598e-13
   9     -0.19507031964915
  10    -8.4437573451329e-15
  11    9.0678119246449e-13
  12       1.5982167591908
  13    1.9039832024285e-12
  14    -3.4796372817959e-14
  15    2.7099593073891e-15
  16    -0.032130685029132
  17    -8.7343812440626e-15
  18      0.12490444976903
  19    -1.1712807126569e-13
  20    -8.5308978039099e-14
  21    -0.090698669701057
  22    -4.6694531910708e-14
  23      0.29060483037996
  24    -9.5112386751405e-14
  25    -5.8157441418634e-13
  26    -1.1840077338167e-14
  27    1.3614819708859e-11
  28    -3.4631960337223e-13
  29     0.067375083887884
  30    3.3087186195319e-13
  31    4.283295525914e-13
  32     0.069553319723511
  33    3.6577973908049e-13
  34    1.1197610028603e-12
  35      -1.8337000136499
  36    -8.0392238265017e-13
  37    4.7185740780932e-15
  38    2.3351485916797e-15
  39     0.035701063294944
  40    1.8945746873331e-14
  41     -0.00798254067664
  42    2.5510625503698e-13
  43    -1.8550256458471e-13
  44      0.16711203351153
  45    5.541496810705e-14
  46    -0.032091896419564
  47    2.7533238211301e-13
  48    -2.2077853694657e-12
  49    -6.9005148829961e-12
  50    8.7258904740808e-14
  51     0.060762310896519
  52    -5.7669777568912e-14
  53    1.4524132817477e-12
  54      0.38174354809915
  55    -5.1457086800993e-13
 Sym= A
 Ene=              10
 Spin= Alpha
 Occup=    0.00000
   1     0.012700559950775
   2      0.11536228786848
   3      0.11476144558858
   4    -0.031014522150535
   5     0.082395300851782
   6    9.1099698394068e-14
   7    -0.051071149546689
   8     0.043373667647415
   9     7.14445997949e-14
  10     -0.19526101794026
  11      -0.3819033180041
  12    -6.8843662966321e-13
  13     -0.54851462795358
  14     -0.12903515065921
  15    0.00043787966032752
  16    3.3896341170942e-14
  17     -0.20138866384625
  18    -4.3980955819994e-14
  19     -0.16536027020026
  20    0.0060898264135725
  21    7.1940115758514e-14
  22      -0.3732845064753
  23    -1.3634444318097e-13
  24    -0.0068872293945885
  25     -0.15537851583264
  26      -0.3182279957297
  27     -0.35590392191103
  28     -0.22776937747179
  29    -6.2878886424084e-14
  30     -0.11290104564422
  31     -0.19592464212736
  32    -2.7029881779223e-14
  33      0.20158027360183
  34      0.30730159935447
  35    8.089677162367e-13
  36     0.017556085780033
  37    -0.0049290511576584
  38    -0.023171262680656
  39    -8.5458243389946e-15
  40    -0.026797361302886
  41    -1.2874294543128e-14
  42     0.066605162076799
  43     0.023664054684045
  44    -4.4639309373912e-14
  45     -0.08141895204974
  46    1.7268690153953e-14
  47       0.2484675017193
  48      0.24963340340048
  49      0.18482832247592
  50     0.023072586277552
  51    -2.4068658197927e-15
  52    -0.026877888371528
  53     0.027591041006079
  54    -9.2579627908211e-14
  55     -0.13680564674927
 Sym= A
 Ene=              11
 Spin= Alpha
 Occup=    0.00000
   1    1.8469731032112e-15
   2    -4.1574637947716e-14
   3    -2.0783063600006e-13
   4    2.2558469480764e-13
   5    -2.6206015876478e-14
   6      0.23069946715955
   7    6.9509988508999e-15
   8    -8.9597446690773e-14
   9      0.24919968734828
  10    4.132184037166e-14
  11    3.7821402699725e-14
  12     -0.50260397179253
  13    -3.1625916107742e-13
  14    -3.0769632729591e-14
  15    -1.8657347991537e-14
  16     -0.27350271865956
  17    -3.7388857141316e-14
  18      0.20725465102363
  19    -6.4523874721021e-14
  20    2.1600529706284e-14
  21     -0.49070365116671
  22    -9.0085758817747e-14
  23      0.30445430622248
  24    1.5550975824022e-14
  25    7.0169119265408e-14
  26    -3.5309043899358e-14
  27    -2.0846807020235e-12
  28    1.7944263883837e-14
  29     -0.15764605803809
  30    -1.1029662494069e-13
  31    -1.5238554483346e-13
  32     -0.31966072308199
  33    1.5496303209086e-13
  34    -1.1532220662358e-13
  35      0.35620556668464
  36    7.6510503427645e-13
  37    -1.4736370085594e-14
  38    -1.7694337481146e-14
  39    -0.092821051682139
  40    -2.5232306256712e-14
  41      0.11882367285389
  42    -5.4064810770851e-14
  43    8.6594886049193e-14
  44     -0.39290169148054
  45    -3.377326320785e-15
  46      0.12763409670983
  47    -2.7491908396567e-15
  48    6.8534474145329e-13
  49    1.5058552572584e-12
  50    1.2348789662297e-14
  51    -0.027935321324929
  52    2.3646657468837e-14
  53    -3.0392771706722e-13
  54     0.085580414220787
  55    1.7281775741812e-13
 Sym= A
 Ene=              12
 Spin= Alpha
 Occup=    0.00000
   1    3.7460083644568e-16
   2    -2.4988397423711e-14
   3    -1.9917847676772e-13
   4    -1.7685814402492e-12
   5    -3.858188683534e-14
   6     -0.16974030489037
   7    -6.4922914889221e-15
   8    8.6791981330132e-14
   9      0.24257105015821
  10    1.2360065092005e-13
  11    3.0430409620866e-13
  12     -0.22210240256188
  13    9.0341565439774e-13
  14    1.4469806153287e-14
  15    1.9662822744145e-14
  16      0.44563156459067
  17    3.3078043991125e-14
  18      0.16004358805373
  19    6.774991710956e-15
  20    -4.6198072035391e-14
  21      0.28717707673065
  22    9.2231770390043e-14
  23     0.069457623631716
  24    -1.9888458350183e-14
  25    -1.0678423693867e-13
  26    2.9745762001219e-13
  27    5.8154374543275e-12
  28    6.9506750958647e-14
  29     -0.34830546422257
  30    1.2403974338285e-13
  31    2.9487362924496e-13
  32      0.34424630317406
  33    1.1709697427472e-13
  34    5.6174564657396e-13
  35     0.055000733563221
  36    -5.4197064215751e-13
  37    -3.5381860243411e-14
  38    1.8277545212959e-14
  39    -0.098164579130704
  40    9.5127158192008e-15
  41      0.15050120868234
  42    1.0593938052584e-13
  43    -3.4838550956486e-14
  44    -0.042508952474911
  45    1.2786873622036e-14
  46    -0.022640614699179
  47    -2.1205424349494e-13
  48    -1.0770090675246e-12
  49    -3.065013965137e-12
  50    4.9613884788366e-14
  51      0.36954509085683
  52    -1.9981538619432e-14
  53    6.429444870937e-13
  54      0.23396219964102
  55    -2.4704877327322e-13
 Sym= A
 Ene=              13
 Spin= Alpha
 Occup=    0.00000
   1    -1.8167438926748e-14
   2    8.2034090920582e-15
   3    3.8013099891419e-13
   4    5.669790209239e-12
   5    6.1546286518933e-14
   6      -0.2959086786699
   7    3.8760466091598e-13
   8    -2.1293473969862e-13
   9      0.32660424583938
  10    -5.6952677381154e-14
  11    -1.4469882256048e-12
  12     -0.17121817184029
  13    -3.3115001268439e-12
  14    -1.091697832734e-13
  15    2.5576438154668e-14
  16      -0.1624427803569
  17    -1.4275659053161e-13
  18     -0.17958256541308
  19    2.4206210019297e-14
  20    6.5971106722622e-14
  21      0.16924515351502
  22    -3.198986085158e-13
  23       0.1816949811993
  24    1.1814960907764e-13
  25    7.7746780285527e-13
  26    2.2624749980476e-13
  27    -2.1037809649412e-11
  28    4.7862612544829e-13
  29      0.36305918855843
  30    -6.1508183551397e-13
  31    -8.6963982709159e-13
  32     -0.39977961219467
  33    -1.2478864742171e-13
  34    -1.4013687003612e-12
  35       1.1257649712523
  36    2.0280066120433e-12
  37    -7.1626987166208e-14
  38    -4.7597359714784e-14
  39     -0.28294840672645
  40    -4.0284633600161e-14
  41      0.34101962285791
  42    -2.4096500920244e-13
  43    2.940639986977e-13
  44    -0.0044224662642192
  45    -1.7040624667478e-13
  46      0.38632398740146
  47    -3.4274397834766e-13
  48    3.5794009623062e-12
  49    1.1330388145169e-11
  50    -6.8608323215851e-14
  51      -0.1179460870773
  52    6.9024545446478e-14
  53    -2.2100493122695e-12
  54     -0.76779845920398
  55    7.1063866488961e-13
 Sym= A
 Ene=              14
 Spin= Alpha
 Occup=    0.00000
   1    -5.1245198206297e-14
   2    -1.1001618505382e-13
   3    3.3854905064146e-13
   4    -1.8988164148705e-13
   5    -7.69648770428e-15
   6     -0.89819354010509
   7    -1.6433293812677e-14
   8    -4.5601330500129e-14
   9       2.0356071037153
  10    -1.7062693489725e-13
  11    9.1328133794045e-14
  12     -0.77233103226826
  13    1.7659054417948e-13
  14    1.5790686501692e-14
  15    -2.0791161579136e-14
  16    -0.014322186095676
  17    1.0656015360103e-14
  18     0.086887986379015
  19    3.6035745002103e-14
  20    1.497333186594e-14
  21     -0.70078771754545
  22    2.8881978729126e-14
  23     -0.19934401383947
  24    7.593953517806e-15
  25    -2.7604900412209e-14
  26    -4.3975475839495e-13
  27    8.5859877312286e-13
  28    -1.0265905971084e-13
  29     -0.22447086503413
  30    3.8828045496607e-14
  31    -5.6567314684203e-14
  32     -0.86881204983952
  33    -1.5196496354103e-13
  34    3.8670336887498e-14
  35      0.38563678019428
  36    -9.0857346788747e-14
  37    4.1729103250141e-14
  38    -2.3873812945213e-15
  39      0.20748059482788
  40    -1.3587887350422e-14
  41     -0.09868575747753
  42    -6.978871554993e-14
  43    -2.3393077008688e-14
  44     -0.68635356775166
  45    1.3500550395143e-14
  46     -0.24137027775193
  47    1.2129797874143e-13
  48    -2.175830996834e-14
  49    -4.9305840728793e-13
  50    -1.4094419595299e-14
  51    -0.040189696091574
  52    8.4712141517928e-15
  53    5.0943340849172e-14
  54     0.059721269213465
  55    2.9750460389889e-14
 Sym= A
 Ene=              15
 Spin= Alpha
 Occup=    0.00000
   1    7.1276554264826e-14
   2    1.6564542973637e-13
   3    -1.1493500033584e-13
   4    2.5414276774265e-12
   5    3.0002766619888e-14
   6     0.056561353085457
   7    1.5118014458984e-13
   8    2.1980552343195e-14
   9      -1.0160229653223
  10    3.2161372887456e-13
  11    -6.2417934706985e-13
  12      0.35747872708046
  13    -1.5953872907021e-12
  14    -8.7462713493644e-14
  15    1.6277019134433e-14
  16     -0.16729050288159
  17    -7.0242682750373e-14
  18     -0.13601506739547
  19    -1.589220325256e-13
  20    -3.7445974232999e-14
  21      0.22174514260562
  22    -2.0980328926662e-13
  23        0.116796137296
  24     1.64882595372e-13
  25    6.1271333090772e-13
  26    2.7432201365923e-13
  27    -1.0228111892023e-11
  28    1.6045677262315e-13
  29     -0.82129323771119
  30    -2.0796401184167e-13
  31    -2.4592698719775e-13
  32       1.7501639712929
  33    1.5965882200922e-13
  34    -9.0251868384002e-13
  35      0.19255644478864
  36    1.0492814058467e-12
  37    3.5611257139372e-14
  38    8.4314300332804e-14
  39      0.13634196040579
  40    -1.0343379879167e-13
  41     0.059116972971515
  42    -2.1031536279168e-13
  43    8.6878325546861e-15
  44       0.3140570948887
  45    4.4448922065906e-15
  46      0.42247677532144
  47    -8.8339921005882e-14
  48    1.7166225412055e-12
  49    5.6299320999283e-12
  50    -1.5941397527427e-13
  51     -0.12804904023927
  52    1.072251140045e-13
  53    -1.1384143101223e-12
  54       -0.811891183253
  55    2.6524529560123e-13
 Sym= A
 Ene=              16
 Spin= Alpha
 Occup=    0.00000
   1    -0.010083813987592
   2    -0.040087259434918
   3      0.12464471019361
   4      0.13437480172179
   5    -0.075962727124003
   6    -0.009538667330238
   7     0.030868162026835
   8     -0.10889289396008
   9      0.54032344589299
  10    -0.040722192446741
  11      0.38390682587233
  12      0.68313562071122
  13     -0.10964173386907
  14     0.016903525971701
  15    0.0095016950792748
  16     0.015220514247723
  17     0.035981168674886
  18       0.1692797733336
  19      0.04070691158459
  20    0.0038207298033103
  21     -0.54611054544977
  22     0.063390401597226
  23     -0.23354826626459
  24    -0.0058658220903151
  25     0.025021361915292
  26      0.15962312611764
  27      0.29964218910277
  28     -0.13091367288337
  29     0.049233563890359
  30     0.069288650033056
  31     -0.11109513663217
  32      -1.1397114870513
  33     -0.18421503319799
  34      0.66575799660534
  35     -0.16385360056265
  36    -0.070288158261192
  37    0.0057187286829779
  38    -0.0048893639993923
  39     0.058518920990574
  40    -0.0060979691035118
  41     -0.18578991929117
  42    -0.070580535183024
  43    -0.063635705447058
  44     -0.60487056970543
  45      0.05000498406722
  46     -0.34338775929543
  47    -0.026667722537896
  48     -0.57108650099145
  49       -0.192635884098
  50     0.016760272047792