[Molden Format]
made by pyscf v[2.13.1]
[Atoms] (AU)
O   1   8     0.21099695469856     0.00000000000000     2.15462460678861
N   2   7    -0.44776862100326     0.00000000000000    -0.03589262653049
H   3   1     1.18163474748449     0.00000000000000    -1.17386889907833
[GTO]
1 0
 s    8 1.00
                 11720  0.00070964594651845
                  1759  0.0054672722921914
                 400.8   0.027823118610189
                 113.7    0.10474773971146
                 37.03    0.28292084635691
                 13.27    0.44849523869833
                 5.025    0.27081688521277
                 1.013    0.01545029160744
 s    8 1.00
                 11720  -0.00031444341168873
                  1759  -0.0024821376810179
                 400.8  -0.012316355381583
                 113.7  -0.050538917343672
                 37.03   -0.13938490331632
                 13.27   -0.32507749481778
                 5.025   -0.22984830758785
                 1.013     1.0953793467883
 s    1 1.00
                0.3023                   1
 s    1 1.00
               0.07896                   1
 p    3 1.00
                  17.7   0.062679166281506
                 3.854    0.33353656587936
                 1.046    0.74123964163973
 p    1 1.00
                0.2753                   1
 p    1 1.00
               0.06856                   1
 d    1 1.00
                 1.185                   1
 d    1 1.00
                 0.332                   1

2 0
 s    8 1.00
                  9046  0.00069961741342552
                  1357  0.0053860546299287
                 309.3   0.027391021189057
                 87.73    0.10315059198201
                 28.56    0.27857066331743
                 10.21    0.44829484945412
                 3.838    0.27808592839527
                0.7466   0.015431561233271
 s    8 1.00
                  9046  -0.00030499009595337
                  1357  -0.0024080263785077
                 309.3   -0.01194444872518
                 87.73  -0.048925992909017
                 28.56   -0.13447272472496
                 10.21   -0.31511257770011
                 3.838   -0.24285783254964
                0.7466     1.0943822068542
 s    1 1.00
                0.2248                   1
 s    1 1.00
               0.06124                   1
 p    3 1.00
                 13.55   0.058905676772132
                 2.917    0.32046110671427
                0.7973    0.75304206179207
 p    1 1.00
                0.2185                   1
 p    1 1.00
               0.05611                   1
 d    1 1.00
                 0.817                   1
 d    1 1.00
                  0.23                   1

3 0
 s    3 1.00
                 13.01   0.033498726389998
                 1.962    0.23480080117413
                0.4446     0.8136829578829
 s    1 1.00
                 0.122                   1
 s    1 1.00
               0.02974                   1
 p    1 1.00
                 0.727                   1
 p    1 1.00
                 0.141                   1

[5d]
[7f]
[9g]

[MO]
 Sym= A
 Ene=               0
 Spin= Alpha
 Occup=    1.00000
   1    -0.0029507104633535
   2     -0.01752012244418
   3    -0.016063369173206
   4    -0.011618597563725
   5      0.51801031741132
   6    2.7664143181553e-15
   7    -0.087576036652283
   8      0.36256370538047
   9    1.5829603985991e-15
  10    -0.068715067693086
  11      0.12503213160736
  12    8.6888145480748e-16
  13    -0.022504606808046
  14    -0.0007742991174615
  15    -0.0023144447691759
  16    -7.8098660539684e-17
  17    -0.00072143028509835
  18    -5.6993542074165e-17
  19    0.00099442195506803
  20    -0.0012913418848061
  21    -1.7811354566222e-16
  22    -0.0015404421699089
  23    1.2828003249904e-17
  24    -0.00054577524613164
  25      0.12581442117946
  26      0.27191315891461
  27      0.16453486629601
  28     -0.37056003049771
  29    2.1887007370631e-15
  30    -0.043826017197769
  31     -0.22574738637069
  32    1.3281541535776e-15
  33     -0.03215379107887
  34    -0.075203494692705
  35    -4.8965218833708e-16
  36    -0.0039350245635842
  37    -0.010433111749299
  38     0.022773852527516
  39    1.887221345882e-16
  40    -0.010975592511308
  41    1.0229171966631e-16
  42    -8.7064112201335e-05
  43    0.0022071619262408
  44    -2.7483182446498e-17
  45    0.00061978716686407
  46    1.4568664319119e-17
  47     -0.28233376963785
  48     -0.18936024950493
  49    -0.037987482489661
  50     0.003228984216098
  51    1.6683178709871e-16
  52    -0.0096015053936582
  53    -0.018501323632788
  54    -1.6040882661784e-16
  55     0.018883017708275
 Sym= A
 Ene=               1
 Spin= Alpha
 Occup=    1.00000
   1    0.0052318284165818
   2    -0.060223681333477
   3     -0.10831699653031
   4    -0.092258929217056
   5     -0.18020442759868
   6    1.1301680038937e-12
   7     -0.29529504257728
   8      -0.1008441702714
   9    6.8663002710967e-13
  10     -0.13958094523873
  11    0.0026323651492601
  12    7.7048348565479e-14
  13    -0.0021470554161032
  14     0.005750002766361
  15     0.011661061283727
  16    -5.5059665397764e-14
  17    0.0033876605593521
  18    -1.4565827687123e-14
  19    -0.0086012724782989
  20     0.010863696227079
  21    -6.292818641473e-14
  22    -0.00068646850843785
  23    -1.3556616474253e-14
  24    -0.0017804457783014
  25     -0.15327711447743
  26     -0.13508571395489
  27     0.039083125107036
  28     -0.12910205616676
  29    9.3974567753061e-13
  30      0.41259825822197
  31    -0.0013914466540643
  32    4.893396810109e-13
  33      0.11388967719832
  34    0.0037622157104288
  35    3.8155967241467e-14
  36      0.01704607823181
  37     0.022642422799066
  38      0.01974989123582
  39     7.19354166517e-14
  40    -0.0078909489413998
  41    4.3428800969318e-14
  42    -0.017252620377307
  43    -0.012584578240719
  44    -4.6333268926772e-15
  45     0.019683282071474
  46    2.6197298826047e-14
  47      -0.3328292997108
  48     -0.10358621121994
  49    -0.0066907530659962
  50     0.027569665621232
  51    2.6713727802675e-14
  52    -0.013388563543235
  53    0.0083926973720569
  54    6.6383856564376e-15
  55    -0.011172779591563
 Sym= A
 Ene=               2
 Spin= Alpha
 Occup=    1.00000
   1    -0.0032030173412996
   2    -0.015186030059418
   3     0.009111715881779
   4     0.036399914419527
   5     -0.36824725886178
   6    -3.1277826906074e-13
   7      0.23821169272449
   8     -0.21943549453524
   9    -1.9065658325455e-13
  10      0.12945767685339
  11    -0.025322924815697
  12    -2.0086966407521e-14
  13    0.0070308632330177
  14    -0.011985716059035
  15     0.015619143402197
  16    1.5191440319747e-14
  17    0.0046722845925313
  18    3.986639155647e-15
  19    -0.0074487528566688
  20     0.017704530867046
  21    1.7715685871904e-14
  22    0.0019543822219466
  23    3.937572475428e-15
  24    -0.0025026137024561
  25      0.16707778251545
  26      0.24902331521473
  27     0.028735115498459
  28     -0.39492351133801
  29    -2.6020172067788e-13
  30     -0.10430944985497
  31     -0.18001287813746
  32    -1.3513536947011e-13
  33    -0.067656459805696
  34    -0.015857040939734
  35    -1.1865148167885e-14
  36    -0.0096815951910111
  37    0.0099934408688756
  38    -0.028231803890616
  39    -1.9959074988042e-14
  40    -0.020014062527342
  41    -1.2026735727453e-14
  42    -0.00020432493758572
  43    -0.0054802734960664
  44    1.6705850424813e-15
  45    -0.0054117897767512
  46    -7.184858134697e-15
  47    -0.080176234218377
  48     -0.02463051195988
  49    -0.0024017503052217
  50    -0.0021545270791494
  51    -7.4118985189263e-15
  52    -0.009629826410787
  53    -0.0044959371607834
  54    -1.6819201477632e-15
  55    -0.010590930783622
 Sym= A
 Ene=               3
 Spin= Alpha
 Occup=    1.00000
   1    -1.282211013412e-14
   2    -2.0021743294925e-13
   3    -2.3874788225007e-13
   4    6.5477197132736e-14
   5    1.2309832644491e-13
   6      0.48293643377382
   7    5.9606957612545e-13
   8    7.6889059832391e-14
   9      0.29325120273613
  10    3.3334924372544e-13
  11    -1.8919060024539e-14
  12     0.032802356604109
  13    2.4622821813054e-14
  14    -1.0047012716459e-14
  15    -1.3997161590375e-14
  16    -0.023547370697403
  17    -2.3031456703372e-15
  18    -0.0062388229740347
  19    1.7235402761012e-14
  20    -1.6900993492766e-14
  21    -0.026807233320924
  22    6.1459979687405e-15
  23    -0.0057340089517254
  24    -8.9150313691114e-15
  25    7.0948408418923e-13
  26    7.673881040301e-13
  27    3.681449901052e-14
  28    1.1175734261626e-13
  29      0.40143086921762
  30    -1.0495715750656e-12
  31    -9.179991164691e-14
  32      0.20915817645098
  33    -2.3704289467022e-13
  34    -6.4328573605156e-15
  35     0.016157129053395
  36    -1.6843498803976e-14
  37    -5.1374567451726e-14
  38    -6.8872685302137e-14
  39      0.03072491661808
  40    7.4825715268398e-15
  41     0.018563257983275
  42    5.9948858800963e-14
  43    4.7559369660434e-14
  44    -0.0018467998350396
  45    -5.7406336418101e-14
  46     0.011167004887345
  47    8.6028671114779e-13
  48      2.3630119746e-13
  49    7.3112012363367e-15
  50    -8.0081223327901e-14
  51     0.011418005103861
  52    3.4234849646945e-14
  53    -2.3426883238627e-14
  54    0.0029799986058222
  55    1.8592515598922e-14
 Sym= A
 Ene=               4
 Spin= Alpha
 Occup=    1.00000
   1    -0.00046363953648506
   2      0.32459481789892
   3      0.50301776880155
   4      0.16599769206876
   5      0.07358528812279
   6    4.2668747374229e-13
   7      0.31332161717266
   8      0.02180845010155
   9    2.595600093473e-13
  10      0.11027674802891
  11    -0.0034526310542899
  12    2.8732976946878e-14
  13    -0.011268461765609
  14    -0.015013592003656
  15    -0.0049226873160953
  16    -2.0808378939615e-14
  17    -0.0026818784731938
  18    -5.4989919873555e-15
  19    -0.0050604239145034
  20    0.0023447469429771
  21    -2.3815509978708e-14
  22    -0.0037222647400378
  23    -5.1140704843574e-15
  24    -0.014024470530583
  25     -0.31345513216173
  26     -0.33523616307258
  27    -0.095620049432069
  28    -0.081945425811885
  29    3.546672467053e-13
  30    -0.013340756364486
  31    -0.019570232881437
  32    1.8438492795031e-13
  33    -0.073401948545204
  34    -0.0097019755907894
  35    1.441838967294e-14
  36    -0.025150034022391
  37    0.0023124897994103
  38    0.0021036210619208
  39    2.7113657788283e-14
  40    -0.0023621215566331
  41    1.6386987846467e-14
  42     -0.01838345502941
  43     -0.02157351453268
  44    -1.813778160707e-15
  45     0.010229151885823
  46    9.736479798537e-15
  47      -0.1522684307574
  48    -0.0043563995612034
  49    0.0043403763468064
  50     0.016942013504034
  51    1.0108356337001e-14
  52     -0.01186852028989
  53    -0.0023882686627489
  54    2.640722735245e-15
  55     0.001983429313928
 Sym= A
 Ene=               5
 Spin= Alpha
 Occup=    1.00000
   1    -0.0026535779319431
   2      0.35597802302716
   3      0.35214619867341
   4    -0.0077054981035205
   5    -0.062670087110955
   6    6.224701755169e-14
   7     -0.21166937557934
   8    -0.025519363593404
   9    3.6957513558719e-14
  10    -0.099511539483571
  11    0.0027920280576848
  12    4.1814870421375e-15
  13    0.0078557966732399
  14     0.016080690537403
  15    0.0092666052067235
  16    -3.1026017701206e-15
  17    -0.0015497745174376
  18    -8.5289064866388e-16
  19    0.0095863205809045
  20     0.003490726404857
  21    -3.0913817315321e-15
  22    -2.3512960964182e-05
  23    -5.0222932607343e-16
  24      0.11400588532369
  25      0.26215009480023
  26      0.10435469263627
  27      0.01879087191223
  28     0.068316755983758
  29    5.1786395627433e-14
  30      0.22147165900463
  31    -0.0010846411883734
  32    2.7508773015636e-14
  33     0.011827198815101
  34    0.0051354325596191
  35    2.1536840363732e-15
  36    -0.0012458372159833
  37     0.024417682406138
  38     0.019214185389327
  39    3.9709752121396e-15
  40    0.00062374419298291
  41    2.396885721205e-15
  42     -0.01053784337803
  43    -0.0018352851245594
  44    4.2360804142778e-16
  45    -0.0052639366203859
  46    1.5628120257024e-15
  47     0.032066215196325
  48    -0.038712001032968
  49    -0.0030963812321573
  50    -0.0080647542656563
  51    1.4953791234391e-15
  52    0.0099933172795815
  53     0.012489823878007
  54    4.2894772463769e-16
  55    -0.0083162027467847
 Sym= A
 Ene=               6
 Spin= Alpha
 Occup=    1.00000
   1    -0.006795851113016
   2     -0.03899133607841
   3    -0.035792851337992
   4    0.0035966197524621
   5    0.0060312915755947
   6    4.7341871850811e-15
   7     0.026362574456381
   8     0.002299643924326
   9    2.4792221075466e-16
  10     0.012805578685808
  11    -0.00057591719047186
  12    -1.6816400714295e-15
  13    -0.0014347188128234
  14    -0.0027976440386524
  15    -0.0014405685583437
  16    -1.0058089556636e-15
  17    0.0001423357751131
  18    -3.1122660771953e-16
  19    -0.002472837646553
  20    -0.0012056064743035
  21    2.6640662468008e-15
  22    -0.00029529319187559
  23    6.2761751912567e-16
  24      0.99910848878851
  25    -0.020843979565549
  26    -0.035650398844422
  27    -0.010002530177173
  28    -0.0078223627314845
  29    3.9499692507024e-15
  30    -0.021883495109019
  31    -0.0054869323759734
  32    5.6119753391863e-15
  33    -0.0011646903800123
  34    -0.002515395989865
  35    1.7226567085995e-15
  36    0.00057431958880178
  37    -0.0017522537696358
  38    -0.0022030370525837
  39    4.5774701994969e-16
  40    0.00016897996212545
  41    2.2344169366913e-16
  42    -0.0006815124072272
  43    -0.00041428475263852
  44    2.3323875165266e-15
  45    0.00025226631384132
  46    1.2250368364645e-15
  47    -0.0072479103617689
  48     0.017359129852238
  49    0.0018552646798435
  50    0.0023340302018954
  51    -1.3688451354384e-17
  52    -0.0019268996154892
  53    -0.0063793225057474
  54    -3.9123154580868e-16
  55     0.004229638496574
 Sym= A
 Ene=               7
 Spin= Alpha
 Occup=    1.00000
   1       1.0060518082278
   2     0.010496490470505
   3    -0.041619161410967
   4    -0.011084190083289
   5    -0.00031073674269602
   6    -1.3614166283855e-16
   7    -0.0014736444705987
   8    0.0046339522129171
   9    -2.182531244187e-16
  10     0.018323679706647
  11    0.00075726845190022
  12    -1.0956280387211e-16
  13     0.001692315544791
  14    0.00028609223991285
  15    0.00013663024413115
  16    1.9312166159847e-17
  17    1.0062354867743e-05
  18    -2.1493092797639e-17
  19    -0.0039743077136301
  20    -0.0019000561816096
  21    1.095031700247e-16
  22    -0.00014111363995292
  23    7.2473440993653e-18
  24    0.0067979230633732
  25    -0.0018808557234303
  26     0.026932682710882
  27    0.0074968652036808
  28    0.00035689109255196
  29    -1.2863800582397e-16
  30    -0.00038178250051037
  31    0.0060802970117443
  32    4.5135470627569e-17
  33     0.020894705213605
  34    7.8006749554169e-05
  35    4.7837505837214e-18
  36    0.0023452904962124
  37    -0.00035942722913436
  38    -0.00050535269079105
  39    -1.6554867370249e-17
  40    0.00013474321353818
  41    -4.1031719401413e-18
  42    0.0053787826247625
  43    0.0041171461068578
  44    8.9433077870207e-17
  45    0.00072247378819814
  46    2.9819337284546e-17
  47    -0.00027682376639126
  48    0.0037226436346479
  49    -0.00039526632773685
  50    0.00030235060409766
  51    -5.8043635538721e-18
  52    -0.00070427170408314
  53    -0.0015655386810284
  54    1.0112453121341e-17
  55    0.00011977403113525
 Sym= A
 Ene=               8
 Spin= Alpha
 Occup=    0.00000
   1    -3.0362715409043e-15
   2    -5.7138952505508e-15
   3    5.2325403820503e-14
   4    -9.2471620233297e-14
   5    -2.0877825333319e-14
   6    -0.070910075996083
   7    1.8299560423258e-14
   8    -2.9576119451349e-14
   9    -0.040135035923883
  10    -1.2236943045307e-14
  11    3.4865535095671e-14
  12     0.011357962373223
  13    -8.9742843800759e-14
  14    -2.150906477433e-15
  15    2.7638618035686e-15
  16     0.011733643651063
  17    6.2289908351068e-16
  18    0.0037110784003821
  19    3.909393409111e-15
  20    3.1515420255051e-15
  21    -0.00043440026519108
  22    9.4602131931251e-16
  23     -0.00381656828832
  24    -3.4744228265508e-15
  25    7.0247869984591e-15
  26    7.6501189382636e-14
  27    2.9009516415013e-13
  28     -7.0118159874e-14
  29     -0.22543157464116
  30    8.3733832982108e-15
  31    -5.075252087686e-14
  32     -0.26639123898257
  33    -5.9172290358393e-14
  34    4.3602833678877e-13
  35       1.1355789061701
  36    4.5330660563932e-14
  37    1.6026359451009e-15
  38    -4.5662684276223e-15
  39    -0.012246279079886
  40    -5.7243365561844e-15
  41    -0.016539475596082
  42    -1.9345052480891e-14
  43    -1.4299099943012e-14
  44    -0.031477712672612
  45    1.634461094273e-14
  46     0.030825968910115
  47    1.0140913687017e-15
  48    -2.5152496350367e-13
  49    -2.2393361114375e-13
  50    7.8104313709747e-15
  51    0.0083699086980557
  52    -1.5222607214794e-15
  53    4.3905219181625e-14
  54     -0.05582711635155
  55    -5.6402080423376e-14
 Sym= A
 Ene=               9
 Spin= Alpha
 Occup=    0.00000
   1    1.9647979632143e-16
   2    7.1646536634328e-14
   3    2.3805887377346e-13
   4    1.8170503300763e-12
   5    1.3909383999129e-14
   6     -0.49853957406107
   7    -2.6106703368918e-13
   8    -1.9874751871389e-14
   9     -0.31687501231964
  10    -3.6392888821961e-13
  11    -3.7115269561137e-13
  12    -0.036580358949932
  13    -1.7711245455493e-13
  14    -1.1910580356415e-14
  15    -1.114815942006e-14
  16    0.0019958003651183
  17    4.026306491704e-15
  18    -0.00099670200590556
  19    -7.3885060541103e-14
  20    3.2844167697405e-14
  21    -0.0065852718258713
  22    -2.5125862104651e-14
  23     0.021136567263654
  24    -8.9852352088376e-14
  25    -3.8211280965209e-13
  26    -7.3175358802344e-13
  27    -2.4411802516969e-12
  28    -2.7805473001695e-13
  29      0.55799650069386
  30    2.7488526751593e-14
  31    -4.004213914319e-13
  32      0.47483666288374
  33    -2.9782048862681e-13
  34    -1.7649953687429e-13
  35      0.22025376704931
  36    -4.8914054786021e-13
  37    8.2674338004335e-14
  38    -6.4258668697532e-15
  39     -0.08270314642579
  40    8.6649324702941e-14
  41     0.031302810901444
  42    1.2518337091586e-14
  43    3.3503308812509e-14
  44    -0.084829410644712
  45      1.6568049026e-13
  46      0.02025932368525
  47    1.8962744939426e-13
  48    1.3347272632025e-12
  49    2.0722554423629e-13
  50    -3.7370670087305e-14
  51     0.017457251632971
  52    -2.3926112392764e-14
  53    -2.8919539874531e-13
  54     -0.30639615844805
  55    7.6367843563192e-15
 Sym= A
 Ene=              10
 Spin= Alpha
 Occup=    0.00000
   1    -5.437456106283e-15
   2    -7.8804524992633e-14
   3    -2.0450377467841e-13
   4    -7.3868241456647e-14
   5    -1.0429035039839e-13
   6     -0.25817620581317
   7    2.7961123816983e-13
   8    -6.2239992223854e-14
   9      -0.1247564670023
  10    2.0072494088607e-13
  11    9.6647951475577e-13
  12       1.7284476373163
  13    -4.7685582924812e-13
  14    6.1382598277367e-15
  15    3.016137665091e-15
  16     0.023101740767676
  17    7.2290664699348e-15
  18     0.010294443242661
  19    5.2536654352954e-14
  20    8.8854283745383e-15
  21     0.039576724962812
  22    1.3768165597304e-14
  23    -0.019557963170981
  24    6.7384498483983e-14
  25    2.3823089506141e-13
  26    2.6347475840574e-13
  27    4.827012342754e-13
  28    -1.7337869480776e-13
  29      0.22091614731973
  30    1.7656108837154e-13
  31    2.3245942903076e-13
  32     -0.23601218620373
  33    2.8046436547565e-13
  34    -2.7481368551797e-13
  35      -1.3015060571393
  36    1.5497192747205e-14
  37    -5.8470706646806e-14
  38    -4.2168250488092e-14
  39    -0.030692852142893
  40    1.9627493034004e-14
  41     0.071895690250843
  42    -5.0652367200567e-14
  43    -7.6429049914467e-14
  44     0.094427829230804
  45    3.2696438278969e-14
  46      0.15740432527187
  47    8.3597857796708e-14
  48    -7.4624528882181e-13
  49    3.5794257846976e-14
  50    3.6644826328997e-14
  51    -0.014551732321179
  52    4.966339565414e-15
  53    2.3851067767322e-13
  54     0.010468012342032
  55    -7.215593918576e-14
 Sym= A
 Ene=              11
 Spin= Alpha
 Occup=    0.00000
   1    -8.5782798675101e-05
   2      0.11581302917206
   3      0.24056193542359
   4       2.5332480015119
   5    0.0011527590200841
   6    -7.1711778294816e-14
   7     -0.31291886622436
   8    -0.080075937124081
   9    -3.8239760286238e-13
  10     -0.35771943560498
  11     -0.81945441230078
  12    1.0750520617141e-12
  13     -0.19714260606784
  14    -0.001163251572146
  15    -0.017811865157849
  16    9.3624333606196e-15
  17    0.00070809409703689
  18    -6.6437770490273e-15
  19    -0.072403276563919
  20      0.07927824641554
  21    6.8283144258322e-14
  22    -0.059409304720461
  23    -1.4254804396803e-13
  24    -0.093504861931643
  25     -0.33652024400265
  26     -0.69599962582865
  27      -3.8199168832009
  28     -0.13694888745062
  29    3.5188669845199e-13
  30     -0.28112496733099
  31     -0.44715570551191
  32    -1.9734004502498e-12
  33     -0.26780496346437
  34     -0.19156182915193
  35    -1.986235025643e-12
  36     -0.76972098029741
  37      0.10581943652523
  38     0.048270293384603
  39    6.8039107432675e-13
  40      0.15055503092898
  41    -2.4257935723249e-13
  42     0.014842107840841
  43      0.13539225128013
  44    9.349439599678e-13
  45      0.25129605247774
  46    7.5974376182331e-14
  47    -0.004471929911273
  48       1.8213200277859
  49      0.18063588583532
  50    -0.072326095855431
  51    -2.2652290035947e-14
  52    0.0012928843917965
  53     -0.35869381073299
  54    3.4855108758012e-12
  55      0.20022865907431
 Sym= A
 Ene=              12
 Spin= Alpha
 Occup=    0.00000
   1    8.3555600829187e-14
   2    -1.3432687464875e-13
   3    -2.0188650785573e-12
   4     -2.2919625232e-12
   5    -7.180545289731e-14
   6      -0.1074588412291
   7    2.1188200463588e-13
   8    2.2012123630733e-13
   9     -0.18752135879333
  10    6.2595578448739e-13
  11    1.2187388849746e-12
  12      0.15048429773345
  13    1.7313015420431e-13
  14    -5.7420420035541e-14
  15    -3.7415112658735e-14
  16    -0.00031786384013223
  17    1.1711153156181e-14
  18    -0.023822058630906
  19    -4.8024569894602e-14
  20    -2.8355609167842e-13
  21     -0.12875383516331
  22    1.8002416587613e-13
  23      0.25986586491518
  24    3.2293911220096e-13
  25    7.512377578038e-13
  26    1.1076930041166e-13
  27    4.028734966299e-12
  28    1.2316746282346e-14
  29     -0.12778234518088
  30    2.4836335007346e-13
  31    5.1364134065028e-13
  32     -0.11152874218469
  33    1.3569699273898e-12
  34    -5.3250194115016e-13
  35     -0.73229004298993
  36    1.5732384805219e-12
  37    -9.1488372935799e-14
  38    -7.0121972014741e-14
  39     0.043848431045561
  40    -1.6304534039575e-13
  41    -0.068277493613457
  42    3.7105976742517e-13
  43    1.0114871218048e-13
  44      0.20714604751937
  45    -2.8522088106837e-13
  46      0.14752691374013
  47    -7.6917219997669e-14
  48    -6.2098747272092e-13
  49    8.9138117105706e-13
  50    1.7289023201534e-13
  51    -0.010908243414082
  52    -5.8190845459082e-14
  53    5.0927742731427e-13
  54       1.2283412447091
  55    -9.9275678909036e-14
 Sym= A
 Ene=              13
 Spin= Alpha
 Occup=    0.00000
   1    9.325258936278e-15
   2    2.0451045904014e-13
   3    1.5845147455652e-12
   4    -1.0511093577505e-12
   5    2.0819614441414e-13
   6     -0.10139694511706
   7    -2.0787452481947e-13
   8    1.5109820469544e-13
   9      0.22307714456556
  10    -2.6964998203769e-13
  11    -9.2426824469637e-14
  12    -0.042762723497949
  13    6.3956486673223e-13
  14    -1.8574582922607e-13
  15    1.4530210212415e-13
  16    -0.026683086483033
  17    2.7406466530709e-14
  18     0.055304737383139
  19    -1.4689160072444e-13
  20    4.9262676265755e-14
  21      0.08738594411495
  22    -2.476247647464e-13
  23     -0.38387165696955
  24    3.9948332709993e-13
  25    7.1379059953058e-13
  26    -1.8014213802351e-12
  27    -6.0954150213704e-13
  28    -5.240637638186e-13
  29     -0.65947801078425
  30    5.6546505741772e-13
  31    -4.9068182653528e-13
  32      0.96382211771428
  33    -8.0862168362421e-13
  34    -2.5366856188033e-13
  35     -0.20703046545317
  36    -3.5664608356544e-13
  37    3.7315805488697e-13
  38    -3.1450906536378e-13
  39     -0.66334640269165
  40    1.4046777645263e-13
  41      0.21768381312431
  42    -1.9773877771694e-13
  43    -2.3044377904494e-13
  44    -0.080354361340406
  45    2.8627927306405e-13
  46      0.30515694342469
  47    3.571105553453e-13
  48    1.7752235787354e-12
  49    2.9649023793738e-13
  50    1.3176105078601e-13
  51    0.0011152767307116
  52    -1.8247690948477e-13
  53    -2.4913415351391e-13
  54     -0.43376383075564
  55    -1.8575634973934e-13
 Sym= A
 Ene=              14
 Spin= Alpha
 Occup=    0.00000
   1    5.1547512988645e-14
   2    3.8424669051612e-14
   3    -1.7536078618962e-12
   4     3.06630001493e-12
   5    -2.0551482846364e-13
   6    -0.070987571696881
   7    -1.350502006477e-13
   8    -1.2978303720333e-13
   9     -0.40293928891983
  10    3.9267995919208e-13
  11    -3.217681398025e-13
  12      0.52480219997598
  13    -7.8599965423343e-13
  14    1.5806324476772e-13
  15    -1.1760574080225e-13
  16    -0.032842679407252
  17    -1.7488906795671e-14
  18    -0.068212644282161
  19    -1.6046612219721e-13
  20    -4.4895545537293e-14
  21     -0.16628672616243
  22    1.3191573350023e-13
  23      0.24954690397848
  24    -9.431696561742e-13
  25    -2.1919309197916e-12
  26    3.2384651638593e-12
  27    -2.1194515538963e-12
  28    -6.8620504455683e-13
  29     -0.69473132628298
  30    1.1906358182153e-13
  31    9.5529757335071e-13
  32       1.2911976035895
  33    3.1121140771598e-13
  34    3.0894553001814e-14
  35     -0.46381486646404
  36    -6.5380955180811e-13
  37    -2.5566664325018e-13
  38    3.2976005462643e-13
  39      0.50924464266768
  40    -1.150695092449e-13
  41     -0.37316461781167
  42    2.4565075662258e-13
  43    3.4811208449721e-13
  44    -0.090328232430716
  45    1.8808932281486e-13
  46      0.10064854263282
  47    2.7550063459995e-13
  48    -1.2843415643176e-12
  49    -4.179383272074e-13
  50    -5.4241094509303e-13
  51     0.080423489580912
  52    4.4736698747494e-13
  53    3.1771853819333e-13
  54     -0.68615609836751
  55    -1.1809006558845e-13
 Sym= A
 Ene=              15
 Spin= Alpha
 Occup=    0.00000
   1    2.209387963691e-12
   2    4.7295163617136e-12
   3    -1.5939837582071e-11
   4    -2.5473040373894e-12
   5    -3.1270371840635e-13
   6    -0.090462106842456
   7    1.0723802637174e-12
   8    6.9125558086965e-13
   9    -0.051529514751358
  10    5.0162634773095e-12
  11    -1.1030531384266e-12
  12     0.052174005006883
  13    -4.3368070688912e-13
  14    1.5650854965185e-12
  15    -1.189744479061e-12
  16     -0.13050004606285
  17    -5.5189296976903e-13
  18       1.0163904563749
  19    -2.5682070599242e-12
  20    1.479208618426e-12
  21     0.048152217399502
  22    1.0376277491444e-12
  23     -0.53994617178126
  24    -1.1932816277456e-12
  25    -2.314215139935e-12
  26    1.362419827735e-11
  27    -8.2445067449348e-14
  28    8.8127546208828e-13
  29    -0.042457681472894
  30    -1.0647995818222e-12
  31    4.9115699330985e-12
  32     -0.07799972263281
  33    9.257687701235e-12
  34    7.5835432346052e-13
  35     -0.18556205056374
  36    1.9669757312408e-12
  37    -7.7366787619041e-14
  38    3.6314489584521e-13
  39      0.22666125207677
  40    2.1524914120187e-13
  41      0.45642021686074
  42    1.1005450427509e-12
  43    2.9610994586315e-12
  44      0.12860106693189
  45    8.0932844246208e-13
  46     -0.29305270536258
  47    -3.5839463925994e-13
  48    -1.4823076068429e-12
  49    2.4479345868884e-12
  50    -6.9660668850638e-14
  51      0.01548324237402
  52    -5.338466307482e-13
  53    -1.0213818413342e-12
  54      0.33723282526443
  55    -2.2600018428975e-12
 Sym= A
 Ene=              16
 Spin= Alpha
 Occup=    0.00000
   1    0.0033960481076855
   2      0.02776178586582
   3    -0.054654159692639
   4      0.60633485260796
   5     -0.16027749535355
   6      0.11061489263358
   7    -0.099023376921827
   8     -0.20742642809648
   9    -0.052452933030671
  10    -0.075822518694301
  11       1.4819134339272
  12      0.29443874780586
  13     -0.16450883819208
  14    -0.0043934320631193
  15    0.0018859114796771
  16    -0.0026213857527536
  17    0.0029239238705152
  18      0.02070402161404
  19    -0.022230391089952
  20    -0.021191779703649
  21     -0.05355738707863
  22    -0.032590687995573
  23    -0.019918918923624
  24    -0.045615539976085
  25     -0.20103798216526
  26     -0.26563444791292
  27      0.31474104826547
  28      0.08417286949618
  29    0.0055624001582903
  30    -0.087761268081526
  31     0.019067967598957
  32     -0.12255390022276
  33    -0.061678174395179
  34      -1.6685714765109
  35     -0.31079398727318
  36     -0.13809370064592
  37     0.033775471388154
  38     0.022791499958911
  39    -0.026002702640375
  40     0.068265524016029
  41    0.0044921046196115
  42     0.083410349079481
  43    -0.025265489319282
  44     -0.10978129149525
  45     0.060419833363789
  46     -0.19799454116655
  47      0.01915562219384
  48      0.33254661943708
  49      -0.6845743225732
  50    -0.019950110621981
  51    -0.0061616459317376