[Molden Format]
made by pyscf v[2.13.1]
[Atoms] (AU)
O   1   8     0.21099695469856     0.00000000000000     2.15462460678861
N   2   7    -0.44776862100326     0.00000000000000    -0.03589262653049
H   3   1     1.18163474748449     0.00000000000000    -1.17386889907833
[GTO]
1 0
 s    8 1.00
                 11720  0.00070964594651845
                  1759  0.0054672722921914
                 400.8   0.027823118610189
                 113.7    0.10474773971146
                 37.03    0.28292084635691
                 13.27    0.44849523869833
                 5.025    0.27081688521277
                 1.013    0.01545029160744
 s    8 1.00
                 11720  -0.00031444341168873
                  1759  -0.0024821376810179
                 400.8  -0.012316355381583
                 113.7  -0.050538917343672
                 37.03   -0.13938490331632
                 13.27   -0.32507749481778
                 5.025   -0.22984830758785
                 1.013     1.0953793467883
 s    1 1.00
                0.3023                   1
 s    1 1.00
               0.07896                   1
 p    3 1.00
                  17.7   0.062679166281506
                 3.854    0.33353656587936
                 1.046    0.74123964163973
 p    1 1.00
                0.2753                   1
 p    1 1.00
               0.06856                   1
 d    1 1.00
                 1.185                   1
 d    1 1.00
                 0.332                   1

2 0
 s    8 1.00
                  9046  0.00069961741342552
                  1357  0.0053860546299287
                 309.3   0.027391021189057
                 87.73    0.10315059198201
                 28.56    0.27857066331743
                 10.21    0.44829484945412
                 3.838    0.27808592839527
                0.7466   0.015431561233271
 s    8 1.00
                  9046  -0.00030499009595337
                  1357  -0.0024080263785077
                 309.3   -0.01194444872518
                 87.73  -0.048925992909017
                 28.56   -0.13447272472496
                 10.21   -0.31511257770011
                 3.838   -0.24285783254964
                0.7466     1.0943822068542
 s    1 1.00
                0.2248                   1
 s    1 1.00
               0.06124                   1
 p    3 1.00
                 13.55   0.058905676772132
                 2.917    0.32046110671427
                0.7973    0.75304206179207
 p    1 1.00
                0.2185                   1
 p    1 1.00
               0.05611                   1
 d    1 1.00
                 0.817                   1
 d    1 1.00
                  0.23                   1

3 0
 s    3 1.00
                 13.01   0.033498726389998
                 1.962    0.23480080117413
                0.4446     0.8136829578829
 s    1 1.00
                 0.122                   1
 s    1 1.00
               0.02974                   1
 p    1 1.00
                 0.727                   1
 p    1 1.00
                 0.141                   1

[5d]
[7f]
[9g]

[MO]
 Sym= A
 Ene=               0
 Spin= Alpha
 Occup=    1.00000
   1    -0.0029007896492739
   2    -0.017298263250039
   3    -0.016478334612925
   4    -0.012301276355514
   5       0.5264538626354
   6    9.8274788030818e-16
   7    -0.092096191060304
   8       0.3675997174818
   9    5.1303426453658e-16
  10    -0.071141272808885
  11      0.12554482846769
  12    7.2194201870657e-16
  13    -0.022616872266327
  14    -0.00050404420682603
  15    -0.002687775152834
  16    9.9833439201157e-18
  17    -0.00083302363252122
  18    -3.295494366396e-17
  19    0.0012072322360236
  20    -0.0017227786282149
  21    -8.5751856323826e-17
  22    -0.0015726274887129
  23    2.9910220487701e-17
  24    -0.00049575374713663
  25      0.12355330231921
  26      0.26771790662238
  27      0.16388626221212
  28     -0.36119200702179
  29    7.0931327150242e-16
  30    -0.043206658315209
  31     -0.22176339957661
  32    5.4980286421337e-16
  33     -0.03104264449959
  34    -0.074838517447631
  35    -5.2080619312329e-16
  36    -0.0037550535601612
  37    -0.010735020307339
  38     0.023299448009312
  39    7.6436704837502e-17
  40    -0.010501744129155
  41    3.3899260769446e-17
  42    1.9375855910546e-05
  43    0.0024172831516167
  44    -2.9087725590062e-17
  45    0.00062954543104821
  46    -2.7781715997434e-17
  47     -0.27879333590908
  48     -0.18834703386436
  49    -0.037906892485214
  50    0.0031196319364946
  51    1.2502075022436e-16
  52    -0.0093058205979283
  53    -0.018424218061834
  54    -1.7521537702121e-16
  55     0.019147076982399
 Sym= A
 Ene=               1
 Spin= Alpha
 Occup=    1.00000
   1    -0.0037044047248635
   2    -0.005043668037814
   3     0.025748845142469
   4     0.046064910468173
   5     -0.33994724915575
   6    5.5133138167254e-14
   7      0.26406933746794
   8     -0.20226412112257
   9    3.2718741737043e-14
  10      0.14049799081397
  11    -0.022841012272266
  12    4.8815508914451e-15
  13    0.0065614140663962
  14     -0.01261649487823
  15     0.014488543845823
  16    -2.7514919627165e-15
  17    0.0043150989628449
  18    -7.6972030219295e-16
  19    -0.0067365078470769
  20     0.016744499457576
  21    -2.6879593110693e-15
  22    0.0019176177325234
  23    -4.1797054759158e-16
  24    -0.00044245562893772
  25      0.17798715768795
  26      0.26047804130816
  27     0.027513562921192
  28     -0.39153471098083
  29    4.5589056957791e-14
  30     -0.13890715610696
  31     -0.18428591682828
  32    2.4220368886193e-14
  33    -0.078591703483876
  34    -0.017834071315652
  35    4.1305815198339e-16
  36    -0.011510082333779
  37    0.0079372112392958
  38    -0.029214521212205
  39    3.4454286009495e-15
  40    -0.019544917299178
  41    2.116047075828e-15
  42    0.00094199921203762
  43    -0.0046782038234431
  44    2.9075820799307e-16
  45    -0.006883731873698
  46    1.3163187523242e-15
  47    -0.060238660976402
  48    -0.020042473871699
  49    -0.0025818442049277
  50    -0.0041475025508983
  51    1.2894708114953e-15
  52    -0.0088303159153967
  53    -0.0055855139734272
  54    6.1099262994925e-16
  55    -0.0092038330106303
 Sym= A
 Ene=               2
 Spin= Alpha
 Occup=    1.00000
   1    0.0028582114370256
   2     -0.19556153807896
   3     -0.30957581876993
   4     -0.14822343627585
   5     -0.22005640749677
   6    7.3591471844076e-14
   7     -0.37229438497585
   8     -0.11622338566532
   9    4.4771043466118e-14
  10     -0.15942054905732
  11    0.0022888673141643
  12    5.4460040651226e-15
  13     0.002909523700481
  14    0.0099919213664494
  15     0.013675200524491
  16    -3.5526361979171e-15
  17    0.0045832535364008
  18    -9.2977437594555e-16
  19    -0.0065828885379016
  20     0.010299909869483
  21    -4.1704244418331e-15
  22    0.0010379619663739
  23    -9.6221245733697e-16
  24    0.0072430520881414
  25    -0.0034586544103091
  26     0.032520299762045
  27     0.077101966934046
  28     -0.11985573251943
  29    6.1444360439397e-14
  30      0.36736193234258
  31    -0.0092094495114618
  32    3.1955478255839e-14
  33      0.12744264397416
  34    0.0055656150323935
  35    2.6078569697625e-15
  36     0.024934515620122
  37     0.019912770639558
  38     0.014508886917458
  39    4.7210684313981e-15
  40    -0.0079267792861787
  41    2.8224988648537e-15
  42    -0.0080464657718938
  43    -0.003101098022496
  44    -4.5249273018206e-16
  45     0.013426683341352
  46    1.8203254305482e-15
  47      -0.2497132381437
  48    -0.094555423312664
  49    -0.0081618135727894
  50     0.018227857694529
  51    1.7235204659858e-15
  52    -0.0084177415311222
  53    0.0078520051731636
  54    1.6177930514611e-16
  55    -0.011546896928719
 Sym= A
 Ene=               3
 Spin= Alpha
 Occup=    1.00000
   1    0.0048784002044468
   2      0.32494358370857
   3      0.46586882724581
   4      0.11162810628505
   5    -0.022138013964282
   6    -9.5558920653284e-14
   7      0.13337043357339
   8    -0.028280322285199
   9    -5.7579407706146e-14
  10     0.029371566553756
  11    -0.0016429706006853
  12    -6.5578357622659e-15
  13    -0.0096777252494109
  14    -0.0088450942915456
  15    0.0020808792322143
  16    4.6720447169981e-15
  17    -0.0012040327108832
  18    1.2541004618787e-15
  19    -0.0066322623029633
  20    0.0074178289426647
  21    5.1393626393137e-15
  22    -0.0035958183831766
  23    1.0702270438932e-15
  24    -0.0070208736527496
  25     -0.29819926677155
  26      -0.3331664694147
  27    -0.065990069300542
  28     -0.12433749726801
  29    -7.9308234430482e-14
  30      0.18787372097133
  31    -0.022777932240136
  32    -4.1757631825258e-14
  33    -0.019645175681399
  34    -0.0069707261138256
  35    -2.9666884684155e-15
  36    -0.016176141087443
  37     0.015305164781658
  38     0.012468050115473
  39    -6.0969861717356e-15
  40    -0.0056632694349646
  41    -3.691007384032e-15
  42    -0.025179057403089
  43    -0.024884886101352
  44    1.6340460105771e-16
  45     0.016209271340359
  46    -2.2932416194244e-15
  47     -0.26896536910098
  48    -0.053317636937174
  49    0.00049994367793426
  50     0.025040993811882
  51    -2.2384721754442e-15
  52    -0.014709413543338
  53     0.003140738076921
  54    -7.0144566944961e-16
  55    -0.0042471194054522
 Sym= A
 Ene=               4
 Spin= Alpha
 Occup=    1.00000
   1    1.1953515907809e-14
   2    2.6038331416642e-13
   3    2.7594322233526e-13
   4    -4.9794762218538e-15
   5    3.2013214030303e-14
   6      0.48293643377382
   7    -7.9410002678854e-14
   8    2.2873877493158e-14
   9      0.29325120273613
  10    -3.7668191016707e-14
  11    5.0564181981358e-15
  12     0.032802356604109
  13    8.142478774545e-15
  14    7.9146759313151e-15
  15    1.748602803045e-15
  16    -0.023547370697403
  17    -2.0956853714288e-15
  18    -0.0062388229740347
  19    4.9526096194906e-15
  20    -1.0498609151867e-15
  21    -0.026807233320924
  22    -7.8563374950724e-16
  23    -0.0057340089517254
  24    -6.5602663432148e-15
  25    8.9875703772094e-14
  26    -4.4735212586412e-15
  27    1.7670056426629e-14
  28    8.624527040174e-14
  29      0.40143086921762
  30    1.0639218922831e-13
  31    2.3161432575469e-14
  32      0.20915817645098
  33    5.5294052383643e-15
  34    7.9042867098355e-15
  35     0.016157129053395
  36    2.2720350465497e-15
  37    1.1584670741371e-14
  38    1.3269460081572e-14
  39      0.03072491661808
  40    3.0066771458954e-15
  41     0.018563257983275
  42    -5.258330052063e-15
  43    -3.3087384302962e-16
  44    -0.0018467998350396
  45    -1.6344866688529e-15
  46     0.011167004887345
  47    3.2066410474098e-14
  48    -1.1827425019372e-14
  49    -3.7691743074918e-15
  50    -4.0388476769087e-15
  51     0.011418005103861
  52    5.995795984722e-15
  53    5.5579889951054e-15
  54    0.0029799986058222
  55    -2.477088670975e-15
 Sym= A
 Ene=               5
 Spin= Alpha
 Occup=    1.00000
   1     0.017735365515446
   2      0.30611160776035
   3      0.27547531438676
   4    -0.029762892075837
   5    -0.064489085013466
   6    -2.5992096114002e-13
   7     -0.24628504419705
   8    -0.023543093899804
   9    -1.5847396001076e-13
  10     -0.10972166513092
  11    0.0031830145857457
  12    -1.7476060166625e-14
  13    0.0097311348738349
  14     0.018181372794174
  15     0.009417866820835
  16    1.2685606588639e-14
  17    -0.0012914384074706
  18    3.3317928813853e-15
  19     0.010785971724779
  20    0.0025878585381659
  21    1.4514255560414e-14
  22    0.00060645206774328
  23    3.261236586004e-15
  24     0.011694972509239
  25      0.31411149158712
  26      0.16341816721088
  27     0.032341383079682
  28     0.088335967957733
  29    -2.1602402898078e-13
  30      0.20325408525479
  31     0.003644775774266
  32    -1.1232655887202e-13
  33      0.01859503808929
  34    0.0067741743534619
  35    -8.8184909625804e-15
  36    0.0019213980970388
  37     0.022717310789017
  38     0.017925438359001
  39    -1.6538354301653e-14
  40    0.0014110275135993
  41    -9.9882172241021e-15
  42    -0.0065308993032861
  43    0.0022550690309319
  44    1.444315648232e-15
  45    -0.0076396007357536
  46    -5.9858636493396e-15
  47     0.071589926546166
  48    -0.033990358387898
  49    -0.0035516406626001
  50    -0.012024543129302
  51    -6.1120718983958e-15
  52     0.012486324635046
  53     0.012905298927714
  54    -1.5031092534134e-15
  55    -0.0083713512831757
 Sym= A
 Ene=               6
 Spin= Alpha
 Occup=    1.00000
   1      0.91044791705491
   2    0.0037867126463822
   3    -0.044389899201856
   4    -0.011229021870194
   5    0.00010216120983006
   6    -2.669222238415e-15
   7    0.00013117912378513
   8    0.0042332393655506
   9    -5.6744509065864e-16
  10     0.017038310410492
  11    0.0007348308843367
  12    5.8941146321782e-16
  13     0.001643902974146
  14    0.00044481544518738
  15    0.00021233497122503
  16    4.7707228003152e-16
  17    6.0325659583044e-05
  18    1.2348034946457e-16
  19    -0.0031657778073982
  20    -0.0013604255371506
  21    -1.0337295480876e-15
  22    -1.1098121497736e-06
  23    -2.7047952998031e-16
  24     -0.42799657677239
  25    -0.0096107026855695
  26     0.032727989680295
  27    0.0099817713835411
  28    -0.0015353576798617
  29    -2.2410660414985e-15
  30    -0.0036752913229084
  31    0.0076627604376994
  32    -2.6188430951209e-15
  33     0.018850079224188
  34    0.00081058514223433
  35    -7.5436764318135e-16
  36    0.0019791854369012
  37    -0.0010189511320412
  38    -0.000686068124223
  39    -2.4449595386328e-16
  40    -3.9876465598186e-05
  41    -1.1961879225936e-16
  42    0.0057389649812596
  43     0.003949520306531
  44    -9.5601086931933e-16
  45    0.00093351334972423
  46    -5.1625982177658e-16
  47    -0.00038238125288644
  48    -0.0020036123962915
  49    -0.00097890391661039
  50    -0.00012796990781607
  51    -1.3267129300357e-17
  52    -0.00049630910884603
  53    0.00055240093623168
  54    1.6951372824923e-16
  55    -0.0012257386178023
 Sym= A
 Ene=               7
 Spin= Alpha
 Occup=    1.00000
   1      0.42773351598094
   2    -0.0010674329534491
   3    -0.021403934560032
   4    -0.0024124237806934
   5    0.0012678541724654
   6    4.496725929589e-15
   7    0.0048587020041474
   8    0.0027120309832201
   9    2.4037465307798e-16
  10       0.0109372896019
  11    9.694797345663e-05
  12    -1.5438510884663e-15
  13    0.0001348017258401
  14    -0.000979952895549
  15    -0.0005165908742905
  16    -9.1558162363112e-16
  17    -1.4677677235988e-05
  18    -2.9690565198913e-16
  19    -0.0030580312485101
  20    -0.0016965420831238
  21    2.4543026596957e-15
  22    -0.00031820516535099
  23    5.834726596317e-16
  24      0.90997126581142
  25    0.0038629563522388
  26    -0.010548100151948
  27    -0.0040936070891568
  28    0.00054714160799967
  29    3.7473996810869e-15
  30    -0.0024778606358472
  31    -0.001935663733032
  32    5.2388471185009e-15
  33    0.0088787558366088
  34    -0.0017402744759074
  35      1.5666328162e-15
  36    0.0014505382240664
  37    0.00021780280667944
  38    -0.00059630423331921
  39    4.2429121314892e-16
  40    0.00034543992071325
  41    2.1103857451458e-16
  42    0.00094282366098469
  43    0.0013771835395672
  44    2.1890134268743e-15
  45    -6.3301419222336e-06
  46    1.1306141565419e-15
  47    -0.0019233964743196
  48     0.014411826257304
  49    0.0012538448682512
  50    0.0013856126671099
  51    -5.6181967373037e-18
  52    -0.0010773022311765
  53    -0.0053643364313259
  54    -3.4054309321789e-16
  55    0.0032082200027015
 Sym= A
 Ene=               8
 Spin= Alpha
 Occup=    0.00000
   1    0.0027765920614192
   2    -0.015916489654234
   3    -0.033328563069651
   4      -1.2801542362215
   5    -0.026437272225823
   6    6.8427691950322e-15
   7     -0.12551294118821
   8      0.03310329376246
   9    9.0847939684851e-15
  10    -0.063901467997187
  11      0.19748145676263
  12    -6.4460823964818e-14
  13       2.0368641923202
  14     0.014096809074072
  15    0.0076896143637181
  16    -9.6017413216894e-17
  17    0.0031981890672477
  18    -1.6909718026493e-16
  19    -0.037994663900547
  20    -0.025830427607352
  21    2.8965548274745e-16
  22    -0.014009732083931
  23    -1.0952629854189e-15
  24    -0.0011525018348287
  25    -0.0053631192055553
  26      0.19935016168069
  27       3.1356415443612
  28    -0.017287887138192
  29    -4.9198519147995e-15
  30     0.082521732928653
  31    -0.021499998460599
  32    -6.081651950931e-15
  33      0.13657811450016
  34      0.74015282467456
  35     5.59397673459e-14
  36      -1.0312088827761
  37     0.023218665664466
  38     0.015613421578577
  39    -3.820765554386e-16
  40    -0.0025159038106251
  41    5.497620276989e-18
  42     0.014384331802901
  43    -0.055771117920452
  44    6.6369291422808e-16
  45    0.0072111630700326
  46    -6.1335578955378e-16
  47    -0.026261162177502
  48     -0.22306150928291
  49        -1.28997948941
  50    -0.0011833881349844
  51    -3.2524115879918e-17
  52    -0.018563619579821
  53    -0.077188533240993
  54    6.7436166529694e-15
  55     0.045922427693886
 Sym= A
 Ene=               9
 Spin= Alpha
 Occup=    0.00000
   1    -0.0015959422377881
   2     0.019156930531714
   3     -0.13483643277046
   4       1.8244128465465
   5     0.055740379073557
   6    -1.246961783545e-13
   7      0.11395080519868
   8    0.0033780885285488
   9    -8.5493726051007e-14
  10    -0.092554839565623
  11     -0.35122186694434
  12    -1.3096904479758e-14
  13     -0.75180852148634
  14    0.0050376789856917
  15     0.024077485493838
  16    -8.8359947379452e-15
  17    -0.020971529214946
  18    5.9441531066611e-15
  19    -0.019310023677966
  20     0.011552811743126
  21    -1.0504065051753e-14
  22     0.018944386520787
  23    9.0913917883234e-15
  24    -0.012314419470012
  25      -0.1214934152078
  26     -0.41695514143665
  27      -1.1622361337463
  28     -0.13537202676322
  29    1.1106541199724e-13
  30      0.23300687236571
  31    -0.014270961819944
  32    7.5922643312251e-14
  33     0.068597200364001
  34       0.1633051710628
  35    1.044552810051e-13
  36      -1.2223796315934
  37    -0.025437511450205
  38    0.0017425363178934
  39    -3.1037807750968e-15
  40     0.022963954103414
  41    -9.73331025763e-16
  42      0.14413363541015
  43     0.052197636022591
  44    -2.8072869840138e-14
  45     0.052329338295179
  46    -6.621270503756e-16
  47     0.055930712848244
  48     -0.14111312010992
  49     0.076524115049492
  50     0.032592314312554
  51    4.4776341497579e-15
  52    -0.0099867259828524
  53    -0.017174555413759
  54    5.9311099142234e-15
  55      -0.1048265892636
 Sym= A
 Ene=              10
 Spin= Alpha
 Occup=    0.00000
   1    -0.0080249005382853
   2    -0.039163622492205
   3       0.3328214937044
   4      0.43785824314846
   5     0.064759067987288
   6    2.4544177856999e-12
   7     -0.29530231920006
   8     -0.41498512498004
   9    1.8734141899679e-12
  10     -0.15574135284402
  11      0.51539715373886
  12    7.8930496831838e-13
  13    -0.063562687389574
  14    -0.092142007715085
  15     0.070642628846616
  16    7.0188847383193e-15
  17     0.058247404847428
  18    -2.7156015309247e-14
  19    -0.048278443258317
  20      0.30470609936697
  21    -4.2374617101271e-14
  22     0.050579525438115
  23    4.2193284887801e-15
  24    -0.067141254878637
  25     -0.23727330069309
  26     0.025169039235065
  27     -0.59657768054539
  28    -0.0014761508816313
  29    -2.6758129137057e-12
  30    -0.011856247544795
  31      0.16092385956439
  32    -2.2021581674028e-12
  33     -0.76275074102074
  34      -0.8524524002997
  35    -8.4977065720761e-13
  36      0.44479674203767
  37     0.010206333228395
  38     0.098760831134933
  39    4.438676808454e-14
  40    -0.019742738485227
  41    -1.5745621672664e-14
  42     -0.14054984916947
  43    -0.074090823746635
  44    1.161812477843e-13
  45    -0.084359709475651
  46    -4.7558307043978e-14
  47    -0.040489155423896
  48    -0.087715387646876
  49       1.0102750990847
  50     0.073562279949433
  51    -7.4782274729276e-14
  52    -0.051675853234228
  53      0.60065200331473
  54    -1.8321812034632e-14
  55    -0.023794184423813
 Sym= A
 Ene=              11
 Spin= Alpha
 Occup=    0.00000
   1    -0.006089596502043
   2     0.016338842772044
   3    -0.014740744562253
   4      -1.2174366356302
   5     -0.31435468338526
   6    6.7252260737246e-14
   7    -0.038338236608019
   8      0.03464819577431
   9    8.2532672886904e-14
  10      0.11363369177511
  11     -0.34384044289364
  12    -9.5871585180478e-14
  13      0.60722876754664
  14      0.02304923868467
  15    -0.081464163415749
  16    4.2995761258681e-15
  17     0.017708743675222
  18    3.6129021829873e-14
  19      0.14719866585586
  20     -0.15410030090779
  21    2.2077057417394e-14
  22     -0.06892933383548
  23    1.1703732827508e-14
  24    -0.037110978087222
  25    -0.086072867766413
  26     -0.17061448934695
  27      0.37216613173803
  28     -0.22966488654275
  29    -1.1065663740689e-13
  30    -0.019534797523457
  31     -0.32371922243736
  32    -3.0387171193361e-14
  33     -0.27745772379715
  34      0.59775878390233
  35    1.0389236236858e-13
  36     -0.20395559582616
  37      0.02607483243754
  38    -0.0011846845009153
  39    2.2863359786974e-17
  40    -0.059507896490689
  41    -9.9882202713221e-15
  42      0.21065760540343
  43      0.28772587535182
  44    -9.1496054892789e-15
  45     -0.13409809523194
  46    -5.9836225634149e-14
  47     -0.15518926232521
  48      0.96068560894407
  49      0.11647347272661
  50      0.10776061148702
  51    3.0970541847503e-14
  52    -0.096346978739877
  53      0.12872302491683
  54    -7.3405475712035e-15
  55       1.3506493882808
 Sym= A
 Ene=              12
 Spin= Alpha
 Occup=    0.00000
   1    -1.9361954164983e-14
   2    -1.9288062695574e-13
   3    3.6946439385673e-13
   4    1.8315065683291e-12
   5    1.6570566292256e-13
   6     -0.19721038709916
   7    -3.2460662911809e-13
   8    -4.4301669978838e-13
   9     0.076004624047482
  10    -2.4800256652218e-13
  11    9.630374170339e-13
  12     0.034273586923154
  13    -2.7587485604343e-13
  14    2.7189135349752e-14
  15    1.6315986422366e-14
  16     -0.13423066299823
  17    9.6936642212633e-14
  18      0.31485527168612
  19    8.2954104126406e-14
  20    2.5172009007688e-13
  21     -0.15611268191148
  22    2.0334881467948e-13
  23    -0.077161909080445
  24    9.9993610048564e-16
  25    -3.2172891998294e-14
  26    -2.7836583063221e-13
  27    -4.4272773095386e-12
  28    -1.44253158381e-13
  29     -0.12579862069782
  30    8.2107466422493e-14
  31    -1.8024344922028e-13
  32      0.17740202069787
  33    -5.8188086036845e-13
  34    -1.6462945510314e-12
  35      0.47125512772363
  36    1.0353186456567e-12
  37    3.8199788606106e-14
  38    -7.8663401057982e-14
  39     0.090909513397373
  40    -1.1347752465841e-13
  41     -0.32364124363383
  42    -5.0457802732739e-13
  43    -2.6186057144728e-13
  44     -0.32486406898437
  45    -7.9711406759868e-14
  46     -0.42582917768802
  47    1.0624842647757e-13
  48    7.8566265293087e-13
  49    3.8185702640531e-12
  50    1.6711157391227e-14
  51    -0.079670541084451
  52    7.6066827555338e-15
  53    3.8763980778466e-13
  54    -0.088708713989451
  55    -2.1993933309429e-13
 Sym= A
 Ene=              13
 Spin= Alpha
 Occup=    0.00000
   1    -0.072463158152228
   2       -0.244101224798
   3      0.25365707041677
   4      0.64902476036263
   5     -0.41526552352411
   6    1.3761430273073e-12
   7      0.37540964727494
   8      0.38139734180604
   9    1.0715273277502e-12
  10     -0.18286054908887
  11      0.34052018009617
  12    3.3472232832858e-13
  13     -0.17366954114558
  14     -0.12361909486267
  15     0.067642346131605
  16    -1.6257081203086e-13
  17     0.070420966396607
  18    3.0721674947259e-13
  19      0.17892298033539
  20     -0.19625438116893
  21    -1.1312942035505e-13
  22    -0.0081386822174795
  23    -9.5225008575028e-14
  24     0.095531385705517
  25      0.31882295601893
  26     -0.11895462130909
  27    -0.051647523714066
  28      0.39103375782443
  29    -1.8628803318039e-12
  30      0.16406095828926
  31     -0.12360665360668
  32    -8.9291715411606e-13
  33    -0.095818440015144
  34      -0.3855356333589
  35    1.6717108437248e-14
  36     -0.27006358587128
  37     -0.11828284762367
  38      0.20963543504478
  39    8.4631276098748e-14
  40      0.18108114506779
  41    -3.3320966322005e-13
  42     -0.17760533619684
  43     -0.07573068972291
  44    -1.6707414741737e-13
  45      0.09434085239999
  46    -2.7157776610055e-13
  47     -0.32495231557596
  48     -0.68464046195136
  49      0.30236331107975
  50    -0.089902454383066
  51    -1.4690364870857e-13
  52     0.071613337349912
  53     0.060108353253896
  54    -1.932724126959e-13
  55     -0.26689521355381
 Sym= A
 Ene=              14
 Spin= Alpha
 Occup=    0.00000
   1     0.054797151584272
   2     0.015481434824143
   3      -1.0515405521601
   4      -1.6702714030833
   5      0.73552931847302
   6    5.0779976776058e-14
   7     -0.22805720217628
   8      -1.4278799112686
   9    3.6842587113943e-13
  10       1.7492708438703
  11      0.23260744109845
  12    -2.0348785216792e-13
  13      0.28923751406227
  14     0.021983756768921
  15     -0.20952484423902
  16    1.5101951998788e-14
  17    -0.034928157421383
  18    -6.317327773187e-15
  19     -0.46211366293808
  20      0.22211338328642
  21    -1.7088755900972e-13
  22      0.11441501307493
  23    4.8762924169982e-13
  24     0.031196273201979
  25      0.11944757601481
  26       1.1628723009117
  27      0.52207706621615
  28      0.53288535786989
  29    -8.8610510757614e-13
  30      0.26112347209304
  31      0.59311651185064
  32    4.7327921690087e-13
  33        0.646626989239
  34     0.085716362377669
  35    6.7639635119643e-14
  36      0.20124771918568
  37     0.056310133204144
  38     0.089430139527861
  39    1.2302174336214e-13
  40     0.076918267840257
  41    -1.6179904071403e-13
  42     -0.19436005405731
  43      0.67627029619613
  44    6.8887805652965e-14
  45       0.2617497974504
  46    8.5408910506839e-15
  47     -0.38194646246498
  48       1.0136294502291
  49      0.15560932629286
  50    0.0045103762992502
  51    1.4655418624338e-13
  52     -0.14762337002609
  53     -0.33648507196696
  54    -2.710416921703e-13
  55      0.52794919130536
 Sym= A
 Ene=              15
 Spin= Alpha
 Occup=    0.00000
   1      0.43508934259285
   2      0.80918694768014
   3       -3.652221334275
   4      -3.2684579521098
   5      -0.2898575103796
   6    -2.9617215321676e-13
   7     0.091572740897488
   8       1.8872658576959
   9    -6.4007942080008e-13
  10       2.1543377532595
  11     -0.20045685161614
  12    -2.567060048311e-13
  13      0.89412363411854
  14    -0.089512155852127
  15    -0.015236675213787
  16    1.3172140093704e-14
  17    -0.018906142985884
  18    -1.1447142556798e-13
  19     -0.59954635310227
  20     -0.55366620974427
  21    1.0896735724403e-13
  22     -0.17917705153256
  23    -2.9197455661107e-13
  24     -0.14930060645031
  25     -0.29271607843822
  26       4.4031212383486
  27       1.8253356201904
  28      0.90405741402811
  29    -9.3398605463935e-13
  30      0.51160819113694
  31     -0.80791241537869
  32    2.0999089158136e-12
  33       2.0938051550169
  34      0.49534099262612
  35    -3.4359454943158e-14
  36      0.48501078145064
  37      0.32999293752161
  38     0.014977119888765
  39    1.101828728843e-14
  40     0.020871570622096
  41    1.325046745392e-14
  42      0.93727492952768
  43     -0.19756841243843
  44    -2.6826928502479e-14
  45     -0.32018927533899
  46    6.0961072941418e-13
  47     -0.19559616068768
  48      0.69216696205105
  49     -0.17593911272169
  50      0.36046586723847
  51    1.4730587831407e-13
  52     -0.34371246971484
  53      0.14667777404694
  54    -3.9209188710828e-13
  55      0.61436961610061
 Sym= A
 Ene=              16
 Spin= Alpha
 Occup=    0.00000
   1    0.0005370583959342
   2    0.0020603826333169
   3     0.003689134454565
   4     0.050700629839754
   5    2.7651007238997e-05
   6     -0.22175616022091
   7    -0.00070931283863739
   8    -0.00023002390526606
   9     -0.28018002456642
  10    -0.003622341321157
  11    -0.0026914578775619
  12       2.0280897849954
  13    -0.012312303726261
  14    -7.0920532455683e-05
  15    0.00063235802944072
  16     0.011266551854291
  17    -4.51763032371e-05
  18    0.0083947790676161
  19    -7.9467805872935e-05
  20    0.0016064672087923
  21    -0.042448918487249
  22    -4.4698883462622e-05
  23    -0.0087799187639969
  24    -7.2642380634319e-05
  25    0.0010993729292605
  26    0.00034521413325505
  27    -0.099248199461742
  28    0.0015552466107147
  29     0.094347498944421
  30    -0.0024661168927519
  31    -0.0042009886951154
  32     0.046915205116141
  33    -0.0058047324849329
  34    -0.010955903379134
  35      -1.5755786098498
  36    -0.0093382105874512
  37    0.00074950670434235
  38    -0.00030096747468057
  39    0.0020071140500671
  40    -0.00072498941039335
  41    -0.0021937954755014
  42    -0.00091178271886361
  43    -0.0020474613388962
  44     -0.06772878849822
  45    -0.0014855586183332
  46     -0.02587035522327
  47    -0.00045388664913952
  48    0.0097900370639112
  49     0.039378422843908
  50    0.00015732698682878
  51    -0.0010016959838471
  52    -2.6828257452051e-05
  53    -0.0072634704981079
  54    -0.00058585473991392
  55    0.00073474753671523
 Sym= A
 Ene=              17
 Spin= Alpha
 Occup=    0.00000