[Molden Format]
made by pyscf v[2.13.1]
[Atoms] (AU)
O   1   8     0.21099695469856     0.00000000000000     2.15462460678861
N   2   7    -0.44776862100326     0.00000000000000    -0.03589262653049
H   3   1     1.18163474748449     0.00000000000000    -1.17386889907833
[GTO]
1 0
 s    8 1.00
                 11720  0.00070964594651845
                  1759  0.0054672722921914
                 400.8   0.027823118610189
                 113.7    0.10474773971146
                 37.03    0.28292084635691
                 13.27    0.44849523869833
                 5.025    0.27081688521277
                 1.013    0.01545029160744
 s    8 1.00
                 11720  -0.00031444341168873
                  1759  -0.0024821376810179
                 400.8  -0.012316355381583
                 113.7  -0.050538917343672
                 37.03   -0.13938490331632
                 13.27   -0.32507749481778
                 5.025   -0.22984830758785
                 1.013     1.0953793467883
 s    1 1.00
                0.3023                   1
 s    1 1.00
               0.07896                   1
 p    3 1.00
                  17.7   0.062679166281506
                 3.854    0.33353656587936
                 1.046    0.74123964163973
 p    1 1.00
                0.2753                   1
 p    1 1.00
               0.06856                   1
 d    1 1.00
                 1.185                   1
 d    1 1.00
                 0.332                   1

2 0
 s    8 1.00
                  9046  0.00069961741342552
                  1357  0.0053860546299287
                 309.3   0.027391021189057
                 87.73    0.10315059198201
                 28.56    0.27857066331743
                 10.21    0.44829484945412
                 3.838    0.27808592839527
                0.7466   0.015431561233271
 s    8 1.00
                  9046  -0.00030499009595337
                  1357  -0.0024080263785077
                 309.3   -0.01194444872518
                 87.73  -0.048925992909017
                 28.56   -0.13447272472496
                 10.21   -0.31511257770011
                 3.838   -0.24285783254964
                0.7466     1.0943822068542
 s    1 1.00
                0.2248                   1
 s    1 1.00
               0.06124                   1
 p    3 1.00
                 13.55   0.058905676772132
                 2.917    0.32046110671427
                0.7973    0.75304206179207
 p    1 1.00
                0.2185                   1
 p    1 1.00
               0.05611                   1
 d    1 1.00
                 0.817                   1
 d    1 1.00
                  0.23                   1

3 0
 s    3 1.00
                 13.01   0.033498726389998
                 1.962    0.23480080117413
                0.4446     0.8136829578829
 s    1 1.00
                 0.122                   1
 s    1 1.00
               0.02974                   1
 p    1 1.00
                 0.727                   1
 p    1 1.00
                 0.141                   1

[5d]
[7f]
[9g]

[MO]
 Sym= A
 Ene=               0
 Spin= Alpha
 Occup=    1.00000
   1    -0.002916183527529
   2    -0.018259317319218
   3    -0.017666819249761
   4    -0.012553667550405
   5      0.52222725398444
   6    -5.5993378448433e-13
   7    -0.091350449684622
   8      0.36514721557646
   9    -3.4009613368562e-13
  10    -0.070569656313431
  11      0.12533601087703
  12    -3.7364421963991e-14
  13    -0.022543900081181
  14    -0.00057777103473902
  15    -0.0024890212016382
  16    2.7359144845794e-14
  17    -0.00077115128093068
  18    7.2128290743858e-15
  19      0.00111063827259
  20    -0.0015173005898994
  21    3.1053076799621e-14
  22    -0.0015505108219434
  23    6.6915328648531e-15
  24    -0.00046910536047697
  25      0.12508760553874
  26      0.27019652859422
  27       0.1644833494602
  28     -0.36541224678068
  29    -4.6554179293592e-13
  30    -0.042744083978703
  31      -0.2235110807072
  32    -2.423778293477e-13
  33      -0.0311710973185
  34     -0.07497578078185
  35    -1.9299354785997e-14
  36    -0.0037463239769851
  37    -0.010566577327338
  38     0.023095480079199
  39    -3.5610050202821e-14
  40    -0.010721548655898
  41    -2.1526843982174e-14
  42    -1.3558538066786e-05
  43    0.0023543440574573
  44    2.1196639418943e-15
  45    0.00063327620946868
  46    -1.2996997967929e-14
  47     -0.28058114111004
  48     -0.18897683666266
  49    -0.037967018528581
  50    0.0031735998821742
  51    -1.3136872664839e-14
  52    -0.0094316300591939
  53    -0.018439026083425
  54    -3.6352939286782e-15
  55     0.019006099443109
 Sym= A
 Ene=               1
 Spin= Alpha
 Occup=    1.00000
   1    -0.0042712272264859
   2    -0.0075006720794805
   3     0.024851592372504
   4     0.048430259581642
   5     -0.34009922309952
   6    1.8710400680135e-10
   7      0.27360606427868
   8     -0.20322106392495
   9    1.1361352514914e-10
  10      0.14506150745456
  11    -0.024063177404889
  12    1.2709733470504e-11
  13    0.0066373030440647
  14    -0.012973673308916
  15     0.014146155356687
  16    -9.1230200176192e-12
  17    0.0042700293572629
  18    -2.4171639280167e-12
  19    -0.0067491973851507
  20      0.01651349638503
  21    -1.0385548512953e-11
  22    0.0019247480135819
  23    -2.2212905576609e-12
  24    -0.00028971491283283
  25      0.17413689573768
  26       0.2568892392797
  27     0.024627630080997
  28     -0.38668817787852
  29    1.5552607166517e-10
  30     -0.14822133298462
  31     -0.18197642959788
  32    8.1034467917357e-11
  33    -0.080531736364682
  34    -0.017287926102287
  35    6.2583273595548e-12
  36    -0.011824648306596
  37    0.0073206344320488
  38    -0.029966065212156
  39    1.1903688127261e-11
  40    -0.019302490498177
  41    7.1919579310169e-12
  42    0.0012896616943084
  43    -0.0045520019437312
  44    -7.1500510786835e-13
  45    -0.0070881818228481
  46    4.3264719168723e-12
  47    -0.053142618817668
  48     -0.01601110532595
  49    -0.0020518331982358
  50    -0.004439694870414
  51    4.4236610960564e-12
  52    -0.008697614028897
  53    -0.0057357869185998
  54    1.154816741188e-12
  55    -0.0090514140732944
 Sym= A
 Ene=               2
 Spin= Alpha
 Occup=    1.00000
   1    0.0067995169510776
   2      0.11072186286099
   3      0.18082840187246
   4     0.028881940844019
   5     -0.11627443276014
   6    3.5242538005069e-10
   7    -0.011680345625556
   8    -0.078167103441488
   9    2.1400214604209e-10
  10    -0.027026220724891
  11    -0.0015108957555469
  12    2.3937820104392e-11
  13    -0.0087836026461133
  14    -0.0067474018549999
  15    0.0064781679452994
  16    -1.718379218309e-11
  17    0.0015506757990966
  18    -4.5527817648583e-12
  19    -0.011296932605387
  20     0.010861691659619
  21    -1.9562912888735e-11
  22    -0.0026417599577436
  23    -4.1845568990507e-12
  24    -0.0044652198857884
  25     -0.32188452908269
  26     -0.29977706620738
  27    -0.025382774899039
  28     -0.18579489942195
  29    2.929464979184e-10
  30      0.29145347805994
  31    -0.025643518245975
  32    1.5263394763814e-10
  33     0.040945766469431
  34    -0.0046464359583995
  35    1.1791030858281e-11
  36    -0.0019932279968853
  37     0.017681836363904
  38     0.013280570826883
  39    2.2421672291712e-11
  40    -0.0091163458249633
  41    1.3546615552318e-11
  42    -0.023687223322281
  43    -0.023044316549036
  44    -1.3480595932452e-12
  45     0.021869905216284
  46    8.1491632082912e-12
  47       -0.364634364697
  48     -0.08325929643036
  49    -0.0026991413039636
  50     0.032659666670859
  51    8.3323504555003e-12
  52    -0.019362056711577
  53    0.0035969376447679
  54    2.1744129273642e-12
  55    -0.0074907959733253
 Sym= A
 Ene=               3
 Spin= Alpha
 Occup=    1.00000
   1    -2.626016159388e-09
   2    -1.4341223735921e-09
   3    -2.0420757772045e-09
   4    -7.5072417491874e-10
   5    -5.3362789868856e-10
   6      0.48293643377382
   7    -1.6562439124987e-09
   8    -2.4169349645765e-10
   9      0.29325120273613
  10    -6.954510257863e-10
  11    1.6697345190195e-11
  12     0.032802356604109
  13    2.9575262936639e-11
  14    6.1142889763688e-11
  15    3.3719636484406e-11
  16    -0.023547370697403
  17    1.5788760865824e-11
  18    -0.0062388229740347
  19    1.0407316306266e-11
  20    1.1925564626735e-11
  21    -0.026807233320924
  22    1.231074299649e-11
  23    -0.0057340089517254
  24    8.1597034220982e-10
  25    7.8170893908606e-10
  26     8.26637165638e-10
  27    3.854584791598e-10
  28    1.0605128841004e-10
  29      0.40143086921762
  30    7.5531334721875e-10
  31    7.8054039896984e-11
  32      0.20915817645098
  33    4.3001818665364e-10
  34    4.2438263935996e-11
  35     0.016157129053395
  36    1.1967424228873e-10
  37    2.5973929470428e-11
  38    2.770754357977e-11
  39      0.03072491661808
  40    -3.0271386730771e-12
  41     0.018563257983275
  42    2.3723011088266e-11
  43    4.6438917309906e-11
  44    -0.0018467998350396
  45    -1.5317144784045e-12
  46     0.011167004887345
  47    -4.409550014469e-11
  48    -1.5495238734849e-10
  49    -2.4216736583195e-11
  50    -8.9757212982748e-12
  51     0.011418005103861
  52    1.8957514670174e-11
  53    2.1326235129494e-11
  54    0.0029799986058222
  55    -2.154700547629e-11
 Sym= A
 Ene=               4
 Spin= Alpha
 Occup=    1.00000
   1    -0.013319205906055
   2     -0.19639009750506
   3     -0.35919525828492
   4     -0.18027771619717
   5     -0.20755400143337
   6    -1.8567856715346e-09
   7     -0.44820058542461
   8      -0.1002360335744
   9    -1.1274874896471e-09
  10     -0.18190676065384
  11    0.0027730204222239
  12    -1.2611744254761e-10
  13    0.0098017791224809
  14     0.017931631249578
  15     0.014181415354401
  16    9.0534555136856e-11
  17    0.0040336678188954
  18    2.3986920663847e-11
  19    0.00063705605581294
  20    0.0069484941558602
  21    1.0306800510756e-10
  22    0.0025827567946084
  23    2.204602890586e-11
  24    0.0092708696187287
  25      0.22472002614941
  26      0.21966871871915
  27      0.10278227530613
  28    -0.027251170562898
  29    -1.5434142933651e-09
  30      0.30225316448247
  31    0.0003831679672251
  32    -8.041674564408e-10
  33      0.12107547097625
  34    0.0098335147750183
  35    -6.2120687818734e-11
  36     0.028196311518646
  37     0.018495033206833
  38     0.012707649877898
  39    -1.1813059126579e-10
  40    -0.0042669910946646
  41    -7.1371691509474e-11
  42    0.0010855372728728
  43    0.0080193455764722
  44    7.1006283685901e-12
  45    0.0021989366269085
  46    -4.2934568483574e-11
  47     -0.07972558574684
  48    -0.069907635355252
  49    -0.0082181870929509
  50     0.001288805102384
  51    -4.3899760603857e-11
  52    0.0028532366887203
  53    0.0097399673589389
  54    -1.1457610948128e-11
  55    -0.011139914512721
 Sym= A
 Ene=               5
 Spin= Alpha
 Occup=    1.00000
   1     0.049935139429322
   2      0.43176391943453
   3      0.47348847648069
   4     0.040228558498277
   5    -0.028318527621172
   6    7.1612710237905e-10
   7     -0.10510989291204
   8    -0.011170747207389
   9    4.348500340976e-10
  10     -0.05776075559548
  11    0.0017834432933429
  12    4.8641386567397e-11
  13    0.0050733388447833
  14     0.011520278419717
  15    0.0069212890833992
  16    -3.4917436645803e-11
  17    -0.0024282702732878
  18    -9.251320501499e-12
  19    0.0086105013420218
  20    0.0031473660926737
  21    -3.9751358503783e-11
  22    -0.00088575173996995
  23    -8.5025821240766e-12
  24    -0.003249515232186
  25      0.18552064922932
  26      0.03074378256218
  27    -0.0074385983610299
  28      0.05535063178159
  29    5.9526577913361e-10
  30      0.18057452377101
  31    -0.0049019545617029
  32    3.101523336563e-10
  33    -0.014328382404819
  34    0.0024559217839957
  35    2.3958668508836e-11
  36    -0.0087194238655901
  37     0.022443833701833
  38       0.0177087666599
  39    4.5560730872985e-11
  40    0.00058566680774158
  41    2.7526709000928e-11
  42    -0.013084855255508
  43    -0.0059916082885307
  44    -2.7381879052563e-12
  45    -0.0039067876600509
  46    1.6559064770505e-11
  47     0.017720407195033
  48    -0.032260054337311
  49    -0.0016144868869591
  50    -0.0057330817824809
  51    1.6931344556604e-11
  52    0.0077480189594754
  53     0.011347489116912
  54    4.4190366601061e-12
  55    -0.0070761865581858
 Sym= A
 Ene=               6
 Spin= Alpha
 Occup=    1.00000
   1       1.0013944039896
   2    -0.015292768438586
   3    -0.072125744376559
   4    -0.015914113305657
   5    -0.0019650457109485
   6    1.1662034351551e-09
   7    -0.0028818597427832
   8    0.0037546896357658
   9    7.0814786522336e-10
  10     0.018638858183554
  11    0.00068587511299159
  12    7.9211465004769e-11
  13    0.0015759256045679
  14    -7.8021193995934e-05
  15    -4.1181350592853e-05
  16    -5.6862652659254e-11
  17    0.00019403819969585
  18    -1.5065661196851e-11
  19    -0.0044714505118935
  20    -0.002040525620292
  21    -6.4734258971839e-11
  22    -6.6186057666291e-05
  23    -1.3846535003706e-11
  24     0.082028019629241
  25    -0.0060822055931351
  26     0.028162421278114
  27    0.0090275995760715
  28    -0.0024567603955193
  29    9.6938234481964e-10
  30    -0.0057042798934541
  31     0.005939930282956
  32    5.0507923653719e-10
  33     0.023390447990928
  34    -2.5577354817565e-05
  35    3.9016649167998e-11
  36     0.003279131188218
  37    -0.0012078683345274
  38    -0.0012760621911741
  39    7.4195076941111e-11
  40    7.7930585135631e-05
  41    4.4826887939767e-11
  42    0.0060087577270488
  43     0.004580839791608
  44    -4.459432372156e-12
  45    0.00085673836141168
  46    2.6966401639516e-11
  47    -0.0015166764240958
  48    0.0055078590590812
  49    -0.00032277198452187
  50    0.00061206664583893
  51    2.7572386466246e-11
  52    -0.0010550679582754
  53    -0.0023770723561037
  54    7.1961258357773e-12
  55    0.00057355348400946
 Sym= A
 Ene=               7
 Spin= Alpha
 Occup=    1.00000
   1    -0.081886300640094
   2    0.0022575037694421
   3    0.0087981646202154
   4    0.0036272604744154
   5    0.00042640233915414
   6    -4.6747515285795e-10
   7    0.0018108569331744
   8    -6.8981381421313e-06
   9    -2.8386541245846e-10
  10    -0.00015228589877957
  11    -0.00024361339607281
  12    -3.1754170372913e-11
  13    -0.0006198820294007
  14    -0.00088369825150613
  15    -0.00044417986911011
  16    2.2792721787622e-11
  17    -6.737283469382e-05
  18    6.0388344776655e-12
  19    -0.00096117127877071
  20    -0.00074782585850956
  21    2.5951929481537e-11
  22    -0.00028200345017226
  23    5.5511384638971e-12
  24       1.0023085334179
  25     0.010895721495948
  26      -0.0246951817285
  27    -0.0084178373060488
  28    0.0020614410618127
  29    -3.8857898084556e-10
  30    0.0026048829005572
  31    -0.0054798602541899
  32    -2.0245836266378e-10
  33    -0.001598863601635
  34    -0.0018547910035954
  35    -1.5638297447571e-11
  36    0.00022314373115704
  37    0.0010128885315201
  38    8.5243235172647e-05
  39    -2.9741096970377e-11
  40    0.00032709638509737
  41    -1.7968910982742e-11
  42    -0.0022024088623661
  43    -0.00082846011099898
  44    1.7900733410832e-12
  45    -0.0005147371458045
  46    -1.0808375097015e-11
  47    -0.0013557267711371
  48     0.012962570877731
  49    0.0015391117994905
  50    0.0011940098722358
  51    -1.105257737484e-11
  52    -0.00057784071725089
  53    -0.0047621580929336
  54    -2.8850044849625e-12
  55    0.0032853571796322
 Sym= A
 Ene=               8
 Spin= Alpha
 Occup=    0.00000
   1    0.00098576493992004
   2      0.11983178727626
   3      0.53625063486364
   4       3.4658804691807
   5    0.0068647926488998
   6    6.3693368121464e-12
   7    -0.028928975469988
   8    -0.047089113932087
   9    -1.8986416608361e-11
  10     -0.31019375394543
  11     -0.38820272160885
  12    -1.3949899100812e-12
  13      -1.0191724542019
  14    -0.0016728917321214
  15    0.00097504616088665
  16    -5.2410978227929e-12
  17    -0.0045930606319121
  18    -4.2603448637488e-11
  19     0.062625188256036
  20     0.029733699455482
  21    1.6173057468194e-12
  22    0.0070535241189128
  23    3.2049626176027e-11
  24    0.0057577511213661
  25    -0.038839081152658
  26     -0.47200773309802
  27      -3.5278169251939
  28     -0.05983997341864
  29    -7.1193289261568e-12
  30    -0.043314411675703
  31      -0.1251293967202
  32    1.6927237102152e-11
  33     -0.45847900990171
  34     -0.37367507303095
  35    -2.0407972908683e-12
  36      -1.8046421446253
  37     0.012711267272259
  38    0.0028550417203449
  39    -1.2619480203533e-11
  40    -0.00044727510019313
  41    1.5949669518069e-11
  42    -0.063745287529826
  43    -0.062899341802182
  44    2.0993852249021e-11
  45    -0.0062950248686977
  46    -1.5500127730224e-11
  47    -0.0021078341052116
  48     -0.16574977996753
  49      0.23496722323024
  50    -0.0039725650743089
  51    1.3521441613041e-11
  52    -0.010753044109771
  53     0.089089004564791
  54    -3.908072640848e-12
  55     -0.14063841353572
 Sym= A
 Ene=               9
 Spin= Alpha
 Occup=    0.00000
   1    -0.021101056178305
   2    -0.089220485136632
   3     -0.20332809320408
   4       1.0111837504119
   5     0.017915611811412
   6    2.1061983586794e-11
   7     -0.15950461017619
   8    -0.047429299554463
   9    1.7092767359591e-09
  10     -0.35846988415785
  11    -0.0050965953034324
  12     4.55569449812e-10
  13       0.8110991186587
  14    -0.014402761573856
  15    -0.070791205321988
  16    9.371657412495e-10
  17     0.080796789845884
  18    -4.1826688138837e-10
  19     0.059507788993206
  20    -0.013303134064751
  21    -1.7441212365026e-09
  22     0.049798156454574
  23    -2.1427975158359e-10
  24    -0.040361205363757
  25     -0.18340791778601
  26     -0.52171752276741
  27     0.054181826856689
  28    -0.039468984955705
  29    1.4082053968844e-10
  30     0.087269428329393
  31    -0.059017625832574
  32    -2.4115363991198e-09
  33    -0.037498327569855
  34     -0.12618448051785
  35    9.1432421361136e-11
  36     -0.89890426764659
  37    -0.014219716267879
  38    -0.021029581677015
  39    2.7380961400203e-10
  40     0.043778871557952
  41    -3.8657743865021e-10
  42      0.17340281206188
  43     0.023668416317684
  44    -1.2408423569746e-09
  45    -0.0019519893059548
  46    -7.1100531987373e-10
  47    -0.0076069926379116
  48      0.21601770582831
  49      0.26183067929449
  50     0.012341449978707
  51    5.0942872857394e-10
  52    -0.021365340880381
  53     -0.16210422773551
  54    -3.6200609437334e-11
  55     0.065609055493526
 Sym= A
 Ene=              10
 Spin= Alpha
 Occup=    0.00000
   1     0.014583010835507
   2     0.032485888893139
   3      0.18881171347334
   4      -1.4424777396429
   5     0.098938949632488
   6    -1.1259643508002e-09
   7    -0.021451524209615
   8     -0.17880766761632
   9    2.6070621073098e-09
  10      0.11965188483102
  11         0.18919609476
  12    5.1468734491051e-10
  13      0.17493632476674
  14     0.033979429541916
  15    0.0037225967582399
  16    -1.9362647635314e-09
  17    -0.059790847380196
  18    1.1551126351618e-09
  19    -0.021839313461589
  20     0.058238280438057
  21    -6.3246614335007e-10
  22    -0.058331316765855
  23    -1.6208595752757e-09
  24    -0.055007016486641
  25      -0.2782014018504
  26     -0.64398861948463
  27       1.3662834386727
  28     -0.41866664541631
  29    5.2655464873759e-10
  30      0.38545648165272
  31     -0.23830940410628
  32    -2.5037097970385e-09
  33      -0.1526703939676
  34     0.058688298892137
  35    -6.4130966927254e-10
  36      0.21726770782356
  37    -0.055754792386067
  38    -0.0037783062690421
  39    -8.6622360104489e-10
  40    -0.083364752733972
  41    1.7431660084248e-09
  42    -0.023327078896599
  43     -0.07337328250589
  44    -1.1818941554858e-09
  45    -0.022318350095969
  46    -7.5659480072598e-10
  47      0.41272907884787
  48       0.9019156554462
  49     -0.32412452639052
  50      0.06276906273227
  51    -8.5070996403677e-10
  52    -0.082774679719675
  53     0.069666203895659
  54    1.014952544463e-09
  55      0.79049601984874
 Sym= A
 Ene=              11
 Spin= Alpha
 Occup=    0.00000
   1    -1.6015315678764e-09
   2    -3.197232367416e-09
   3    1.9588076507672e-08
   4    2.2530885181294e-08
   5    -2.9366140709888e-09
   6     -0.10232626045115
   7    -1.2111139492501e-09
   8    7.6459799813478e-09
   9     -0.36898025647464
  10    -1.0924817754682e-08
  11    -3.0533580091148e-09
  12     -0.16961120545419
  13    -4.0265000410004e-09
  14    -4.8757894683362e-10
  15    2.0857469347811e-09
  16    -0.066122011880441
  17    2.4794338480963e-09
  18      0.34622187715462
  19    3.8612067666242e-09
  20    -5.5325863328655e-09
  21    -0.041585728531305
  22    -6.0081250524094e-09
  23      0.26065371568367
  24    3.5772206020201e-09
  25    6.1870376248825e-09
  26    -3.469688922851e-08
  27    -2.4778708077786e-08
  28    -3.5705420199673e-10
  29      0.61551726027373
  30    1.2822266243072e-09
  31    -2.0681656893428e-08
  32      0.29173279659975
  33    -1.0511213610627e-08
  34    -4.6409877272126e-09
  35    -0.084112387983684
  36    -6.2308084572893e-09
  37    -4.5698249109526e-10
  38    1.8592651180274e-09
  39     -0.11646475456136
  40    -1.3159548148495e-09
  41      0.16797503345095
  42    -7.5673615293776e-10
  43    -6.6471861631358e-09
  44    -0.022242411249753
  45    -3.4499826530999e-09
  46    0.0040766333655878
  47    6.5303288896896e-09
  48    1.3066394411296e-08
  49    3.1112518400258e-09
  50    -3.8227521545414e-09
  51    -0.0061910082907043
  52    3.1068618756261e-09
  53    -3.3211374786554e-10
  54     -0.25005915505263
  55    6.6519086016906e-09
 Sym= A
 Ene=              12
 Spin= Alpha
 Occup=    0.00000
   1      0.02343831406608
   2     0.063192864439479
   3     -0.20733427871833
   4     -0.08602139311245
   5      0.35139811313425
   6    -4.6813801763644e-10
   7      0.11036794443598
   8     -0.38678824371445
   9    -3.8020480238711e-10
  10     -0.12942892392278
  11      0.82222721652947
  12    3.8366655337558e-09
  13      0.03949220971375
  14     -0.16923238706569
  15       0.3400135564242
  16    2.5121558050896e-09
  17      0.18360504599609
  18    -3.7901233288868e-09
  19     0.032013930529243
  20     -0.02040911734217
  21    -3.6979097414429e-09
  22     0.087715362902631
  23    3.3170098580361e-09
  24    -0.028341493245344
  25     0.010774848538201
  26      0.33657922222265
  27      -0.5335695244782
  28     -0.15726494142835
  29    2.1306858058674e-09
  30     0.034975744972165
  31       0.1266686553913
  32    5.1864838328978e-10
  33      0.32056726798082
  34     -0.11884922741467
  35    -2.4566520390267e-09
  36      0.44052683134568
  37      0.17257656533944
  38     -0.24592641349102
  39    4.7910503442786e-10
  40    -0.041399149762546
  41    -1.0043260386859e-09
  42     0.041624826741562
  43     0.048392870949182
  44    -3.4809445555956e-09
  45      0.01001775741162
  46    1.4604585178395e-09
  47       0.1812033448002
  48     0.047879943429445
  49      0.27519065623022
  50     0.026793369069946
  51    2.168666688535e-09
  52     0.045278643074262
  53     -0.28462429174419
  54    -4.9429995291909e-09
  55     -0.62809173996934
 Sym= A
 Ene=              13
 Spin= Alpha
 Occup=    0.00000
   1    -0.070465059649341
   2     -0.20290048136818
   3     -0.41667673699767
   4       1.0673510712989
   5      -0.6978489297645
   6    1.4391111147795e-09
   7     0.047248726874457
   8      0.65574661291918
   9    5.9823325309501e-09
  10     0.086078791491889
  11     -0.24521016298543
  12    -3.142022062078e-08
  13      -0.1623303101856
  14    -0.098691445253903
  15      0.26242188797741
  16    3.5628278393159e-09
  17     0.029654623319099
  18    -3.1709787387109e-09
  19     -0.16075298683328
  20      0.24688018927145
  21    -4.2712224824611e-09
  22     0.014990999094774
  23    7.6649495593923e-10
  24    -0.017171993390026
  25    -0.054482249388092
  26    -0.048251536652839
  27      -1.2047938149541
  28    -0.062627512837786
  29    9.8275364375172e-10
  30     -0.12893765354278
  31      0.22366649700275
  32    -1.1834727875666e-08
  33      0.36028808816579
  34      -0.2006239993479
  35    3.1084409047647e-08
  36      -0.4134724213946
  37      0.13500313164359
  38     -0.17365027440821
  39    -3.010260090159e-09
  40     -0.10920451269553
  41    1.501076205463e-09
  42     0.058629567530977
  43      0.38714295141657
  44    7.9806975318842e-09
  45    0.0047800300410659
  46    -4.7125737741541e-09
  47    -0.039820461795484
  48      0.55020787277444
  49      0.13503357317902
  50    0.0046198424757006
  51    8.5500694492772e-09
  52     0.014453285033063
  53     -0.19193178026124
  54    -2.4038650205197e-10
  55       0.2807958374812
 Sym= A
 Ene=              14
 Spin= Alpha
 Occup=    0.00000
   1     0.079546737303397
   2      0.24881222209463
   3      0.59399450102816
   4      -1.7512529722686
   5     -0.66294271680476
   6    -7.7294398148411e-09
   7      0.21207544496748
   8       2.1272034563507
   9    -8.9597659142428e-07
  10     -0.88912922685747
  11      0.30613481839819
  12    -8.2852780739571e-06
  13      0.54196260296482
  14    -0.0029012991247285
  15     0.023133859825437
  16    -6.4325840278479e-09
  17      0.10335582015673
  18    5.7569978042494e-08
  19      0.52945222276244
  20       -1.063148072067
  21    7.2774841018911e-07
  22     -0.22223949783561
  23    6.4210947415644e-07
  24    -0.0024802045928772
  25     0.010939322510914
  26      0.66155214629656
  27       2.3173730752294
  28     -0.12948638259999
  29    -4.9325548655537e-09
  30      0.17539779314178
  31      -1.5103145009084
  32    -4.4378072598898e-07
  33     -0.28699383302963
  34       0.5543477883581
  35    6.3191420624331e-06
  36      0.34545019243831
  37     -0.22067223416236
  38      0.11772720243457
  39    -4.9946755465091e-07
  40      0.11365905321022
  41    2.5191090341291e-07
  42      0.58330375747816
  43      -1.3347167942298
  44    4.3846790256926e-06
  45     -0.40439166601701
  46    -5.3196487410207e-07
  47      0.17933277961271
  48      -1.5421849771076
  49     -0.28290152448085
  50      0.12499062071615
  51    9.1305997747184e-07
  52     0.067885368602064
  53      0.51843834064052
  54    2.5877361855715e-06
  55     -0.36796647559044
 Sym= A
 Ene=              15
 Spin= Alpha
 Occup=    0.00000
   1    -0.047745492158281
   2     -0.18832165537503
   3       0.4861531334145
   4       1.8132204079976
   5     0.061755890753817
   6    9.9933255286178e-07
   7      0.19152299384723
   8     -0.46022623285231
   9    -2.260033473212e-06
  10      0.12085389356582
  11     -0.31465197334117
  12    1.2423800364188e-05
  13     -0.51602285946057
  14    -0.069498306190557
  15     -0.13700896853023
  16    1.0759457933885e-06
  17    -0.030331522551973
  18    2.7831798717718e-06
  19     -0.24941576337768
  20     0.091855863503882
  21    -3.3665515407322e-06
  22     0.027168447598244
  23    -2.2318537935958e-06
  24      0.11405247048619
  25      0.31659767028082
  26    0.0085455672684252
  27     -0.70294953436196
  28     -0.78774971983762
  29    4.9524991850547e-08
  30      0.86623329448995
  31       1.3544677939928
  32    -2.5411656496545e-06
  33      -1.1428883783296
  34    0.0096357501081109
  35    -5.8322333182191e-06
  36     -0.42872343525218
  37     0.067665760307234
  38      0.24466922571756
  39    9.2447935988962e-07
  40     -0.15548261659015
  41    -2.8884834524548e-07
  42     -0.45579604221295
  43       0.1480384649064
  44    -2.5125474893632e-06
  45      0.26154204407802
  46    -2.8364013346643e-07
  47      0.21913208603367
  48      -1.7313108024497
  49    -0.074049317136759
  50     -0.58117502865759
  51    1.5193363875405e-06
  52      0.47429623527584
  53      0.34063158603976
  54    -2.5737642958449e-06
  55     -0.69175752464507
 Sym= A
 Ene=              16
 Spin= Alpha
 Occup=    0.00000
   1    0.00063657588305397
   2     0.001572040746738
   3    -0.0091850851371201
   4    -0.014426216946014
   5    3.7600517097847e-05
   6     -0.22104183885672
   7    0.0031621591972186
   8     0.015299542833029
   9     -0.29204040432926
  10    -0.0055176290673341
  11    0.0092211728028503
  12       2.0231016301241
  13    -0.010165647995813
  14    -0.004003272589218
  15    0.0056190058480392
  16     0.011403117289745
  17    0.0044137516395928
  18      0.01316993851189
  19    0.0022466271596593
  20    -0.0075943112308414
  21    -0.041007606407733
  22    0.0011124543144102
  23    0.00017931666089123
  24    -0.00027364730924657
  25    -0.001477922424984
  26     0.014534155503601
  27     0.064107978876356
  28    -0.0015119598555233
  29      0.11821300171278
  30    0.0013195311624132
  31    0.0073789925591495
  32     0.057173859420924
  33    0.0086612856610389
  34    -0.014956422576307
  35      -1.6043808053619
  36     0.017324523636056
  37    0.0022452768474869
  38    -0.0029261065292911
  39    -0.0027576061537649
  40    0.00092350310929317
  41    0.0083328486351797
  42    0.0071922526342736
  43    -0.0047056269721359
  44    -0.062448649278107
  45    -0.0015504334000812
  46    -0.019282799436767
  47    0.0028847276897412
  48     -0.03144928908723
  49    -0.029919786453919
  50    -0.00076502003706912
  51    4.224371692956e-05
  52     0.003472182237718
  53     0.014411388737852
  54    -0.0048117132643953
  55    -0.029548342020548
 Sym= A
 Ene=              17
 Spin= Alpha