[Molden Format]
made by pyscf v[2.13.1]
[Atoms] (AU)
O   1   8     0.21099695469856     0.00000000000000     2.15462460678861
N   2   7    -0.44776862100326     0.00000000000000    -0.03589262653049
H   3   1     1.18163474748449     0.00000000000000    -1.17386889907833
[GTO]
1 0
 s    8 1.00
                 11720  0.00070964594651845
                  1759  0.0054672722921914
                 400.8   0.027823118610189
                 113.7    0.10474773971146
                 37.03    0.28292084635691
                 13.27    0.44849523869833
                 5.025    0.27081688521277
                 1.013    0.01545029160744
 s    8 1.00
                 11720  -0.00031444341168873
                  1759  -0.0024821376810179
                 400.8  -0.012316355381583
                 113.7  -0.050538917343672
                 37.03   -0.13938490331632
                 13.27   -0.32507749481778
                 5.025   -0.22984830758785
                 1.013     1.0953793467883
 s    1 1.00
                0.3023                   1
 s    1 1.00
               0.07896                   1
 p    3 1.00
                  17.7   0.062679166281506
                 3.854    0.33353656587936
                 1.046    0.74123964163973
 p    1 1.00
                0.2753                   1
 p    1 1.00
               0.06856                   1
 d    1 1.00
                 1.185                   1
 d    1 1.00
                 0.332                   1

2 0
 s    8 1.00
                  9046  0.00069961741342552
                  1357  0.0053860546299287
                 309.3   0.027391021189057
                 87.73    0.10315059198201
                 28.56    0.27857066331743
                 10.21    0.44829484945412
                 3.838    0.27808592839527
                0.7466   0.015431561233271
 s    8 1.00
                  9046  -0.00030499009595337
                  1357  -0.0024080263785077
                 309.3   -0.01194444872518
                 87.73  -0.048925992909017
                 28.56   -0.13447272472496
                 10.21   -0.31511257770011
                 3.838   -0.24285783254964
                0.7466     1.0943822068542
 s    1 1.00
                0.2248                   1
 s    1 1.00
               0.06124                   1
 p    3 1.00
                 13.55   0.058905676772132
                 2.917    0.32046110671427
                0.7973    0.75304206179207
 p    1 1.00
                0.2185                   1
 p    1 1.00
               0.05611                   1
 d    1 1.00
                 0.817                   1
 d    1 1.00
                  0.23                   1

3 0
 s    3 1.00
                 13.01   0.033498726389998
                 1.962    0.23480080117413
                0.4446     0.8136829578829
 s    1 1.00
                 0.122                   1
 s    1 1.00
               0.02974                   1
 p    1 1.00
                 0.727                   1
 p    1 1.00
                 0.141                   1

[5d]
[7f]
[9g]

[MO]
 Sym= A
 Ene=               0
 Spin= Alpha
 Occup=    1.00000
   1    -0.0045157045486512
   2     0.040022320454357
   3      0.11216269700778
   4     0.092336233309574
   5     -0.25596002350185
   6    -2.4985181811879e-13
   7        0.377329120564
   8     -0.15726075597897
   9    -1.5237203511512e-13
  10      0.18526667093872
  11    -0.019916721463116
  12    -1.5996483261438e-14
  13    0.0032952408138978
  14    -0.017077026564072
  15     0.009789046321482
  16    1.2113458167779e-14
  17    0.0030341407548388
  18    3.1707570058933e-15
  19    -0.0064490176806113
  20     0.013910159743826
  21    1.4227976451581e-14
  22    0.0011907450999244
  23     3.19489922388e-15
  24    -0.0028490001924042
  25      0.11941285403263
  26      0.20507604287878
  27    0.0029461117721413
  28     -0.37482118993722
  29    -2.0797569165506e-13
  30     -0.22796332638752
  31     -0.18249458502027
  32    -1.079491521832e-13
  33     -0.11076057428624
  34    -0.021550151594127
  35    -9.7507856151193e-15
  36    -0.018769401780135
  37    0.0016012094747539
  38     -0.03173819677466
  39    -1.5965918718908e-14
  40    -0.017718236027368
  41    -9.6072276007388e-15
  42    0.0013886245888709
  43    -0.0059862926579998
  44    1.4206358275494e-15
  45    -0.0077697390456846
  46    -5.775788998788e-15
  47    -0.033325219441054
  48     -0.00194725598552
  49    -0.0010226621283977
  50    -0.0050816582478841
  51    -5.9158482336956e-15
  52    -0.009107400671078
  53    -0.0087206560816566
  54    -1.2342309773062e-15
  55    -0.0051104561652545
 Sym= A
 Ene=               1
 Spin= Alpha
 Occup=    1.00000
   1    -0.00054303619404463
   2    -0.037838004260285
   3    -0.056926738749857
   4    -0.037322706250971
   5      0.47132387520459
   6    3.5333564979888e-10
   7     -0.15754734300843
   8      0.33705384562341
   9    2.1455423007442e-10
  10    -0.098213684730832
  11      0.12363621978937
  12    2.4000277765875e-11
  13    -0.021232978010084
  14    0.0016517823813444
  15    0.00035256234943682
  16    -1.7228135475889e-11
  17    -6.1592263897469e-06
  18    -4.56459088303e-12
  19    0.00037465395854045
  20    0.00050381535790131
  21    -1.9613289065111e-11
  22    -0.001304164938477
  23    -4.1951946466043e-12
  24    -0.0020742138763855
  25      0.13787139228687
  26      0.28175207956373
  27       0.1763313688666
  28      -0.3807594171334
  29    2.937028479967e-10
  30     0.024266494573681
  31     -0.22377753099916
  32    1.5302864672366e-10
  33    -0.010076409860013
  34    -0.072863125048925
  35    1.1820640799987e-11
  36    0.00033173727704066
  37    -0.006141953681154
  38     0.025457061307091
  39    2.2479598694663e-11
  40    -0.012043075289986
  41    1.3581618560379e-11
  42    -0.0015487606372737
  43    0.0018703816189086
  44    -1.3512248494614e-12
  45    0.0024083005928644
  46    8.1701968680907e-12
  47     -0.31474891250971
  48     -0.20318017792783
  49    -0.038904775059327
  50    0.0055381675507161
  51    8.353969026134e-12
  52    -0.010255878856439
  53      -0.0164098290648
  54    2.180070218674e-12
  55     0.016363315876532
 Sym= A
 Ene=               2
 Spin= Alpha
 Occup=    1.00000
   1    -4.3297389264092e-09
   2    1.3103989427211e-09
   3    1.3502387750515e-09
   4    -1.1963355945538e-10
   5    -1.1750747498724e-09
   6      0.48293643377382
   7    -1.1204048424612e-09
   8    -6.9048973488796e-10
   9      0.29325120273613
  10    -5.1942063981831e-10
  11    -1.3007683998433e-10
  12     0.032802356604109
  13    6.3753002327014e-11
  14    7.4313757222311e-11
  15    5.8439372039566e-11
  16    -0.023547370697403
  17    -6.8411169520827e-13
  18    -0.0062388229740347
  19    4.4424355151848e-11
  20    2.5801108082765e-11
  21    -0.026807233320924
  22    3.8127716597377e-12
  23    -0.0057340089517254
  24    1.3368548237389e-08
  25    1.7200395159896e-09
  26    3.6239622449346e-10
  27    -7.1142088847072e-11
  28    5.1359464770479e-10
  29      0.40143086921762
  30    1.127733217645e-09
  31    2.3871261232343e-11
  32      0.20915817645098
  33    5.1634575695336e-11
  34    7.5435886078783e-11
  35     0.016157129053395
  36    1.7542524351495e-11
  37    1.4791949550635e-10
  38    5.1643428172384e-11
  39      0.03072491661808
  40    5.0482396532858e-12
  41     0.018563257983275
  42    -7.7102110883404e-11
  43    -1.5829981972976e-11
  44    -0.0018467998350396
  45    -4.732340535387e-11
  46     0.011167004887345
  47    4.8716333192575e-10
  48    1.3137463596516e-10
  49    3.6418747142302e-11
  50    -4.4234209854666e-11
  51     0.011418005103861
  52    5.6736758041694e-11
  53    2.2449446663152e-11
  54    0.0029799986058222
  55    -2.7841107268186e-11
 Sym= A
 Ene=               3
 Spin= Alpha
 Occup=    1.00000
   1    0.0031245229129664
   2    -0.063141043807062
   3     -0.19728706616225
   4     -0.14118769752712
   5     -0.34461000262671
   6    -1.9237338581301e-09
   7     -0.35688919346466
   8     -0.18930090390187
   9    -1.1681405230937e-09
  10     -0.13420198307595
  11     -0.02030820486267
  12    -1.3066465746838e-10
  13     0.015882367563537
  14     0.017036238657137
  15     0.018198688458012
  16    9.3798814871679e-11
  17    0.0040094677778689
  18    2.485176395562e-11
  19    0.0021062808510654
  20     0.010598783493785
  21    1.0678443165472e-10
  22    0.0029970306580555
  23    2.2841047716004e-11
  24     0.040615464546306
  25      0.31022911938153
  26      0.25852634111973
  27     0.076399167306975
  28    -0.038099864476596
  29    -1.5990636572764e-09
  30      0.27254823590327
  31    -0.012842345294837
  32    -8.3316229764591e-10
  33       0.0872700567069
  34     0.016186479253659
  35    -6.4360776211412e-11
  36     0.020954489786072
  37     0.025149889910093
  38     0.004930353505468
  39    -1.2238992552029e-10
  40    -0.0062296555316517
  41    -7.394506472417e-11
  42    -0.00054820204096849
  43    0.0060131732699129
  44    7.3569744105847e-12
  45    -0.0027694716487535
  46    -4.4482589448202e-11
  47    -0.011524839003346
  48     -0.04318371656653
  49    -0.0028774686356504
  50    -0.0046554060673238
  51    -4.5482617149721e-11
  52    0.0055590137037967
  53     0.012827823168488
  54    -1.1870571063128e-11
  55    -0.016345751139265
 Sym= A
 Ene=               4
 Spin= Alpha
 Occup=    1.00000
   1    0.00080226048452621
   2      0.30043355704284
   3      0.39358913098186
   4     0.056301766564854
   5     -0.13294916480942
   6    -4.967938434843e-10
   7    -0.021117459280204
   8    -0.089416823683092
   9    -3.0166545899006e-10
  10    -0.033697105581066
  11    -0.0078789008185718
  12    -3.3743518398601e-11
  13    -0.0050882831219428
  14    -0.002227685786538
  15    0.0080442435171863
  16    2.4223057331663e-11
  17    0.00012190066809373
  18    6.4178596334114e-12
  19    -0.006409002098408
  20     0.010812767501388
  21    2.7576296553642e-11
  22    -0.0028313663848663
  23    5.8984890917896e-12
  24    0.0022366365337464
  25      -0.2294627194628
  26     -0.28562960759955
  27    -0.042217709018425
  28     -0.12090516661649
  29    -4.1294934748046e-10
  30      0.32223583919707
  31     -0.01309421668727
  32    -2.1516004141214e-10
  33     0.023612411631824
  34    0.00042758644223094
  35    -1.662048504199e-11
  36    -0.0072919764900399
  37     0.025021004074203
  38     0.017434834796142
  39    -3.1606545193678e-11
  40    -0.0070731756524892
  41    -1.909593108578e-11
  42    -0.027161617939062
  43    -0.024055770109363
  44    1.8996496793598e-12
  45     0.017703953397606
  46    -1.1487461763049e-11
  47     -0.29844465377906
  48    -0.073495898505661
  49    -0.0004271166689577
  50     0.026535527701297
  51    -1.1745620285886e-11
  52    -0.013658292523176
  53    0.0085471251641629
  54    -3.0656690587139e-12
  55    -0.010123004884886
 Sym= A
 Ene=               5
 Spin= Alpha
 Occup=    1.00000
   1    0.0030481721850862
   2      0.37472868311006
   3      0.42488387112927
   4     0.067492481287271
   5      0.14698679137173
   6    -1.7972458567525e-09
   7     0.010386206372053
   8     0.093373736523711
   9    -1.0913336215792e-09
  10    -0.0049907373322137
  11      0.01200943854573
  12    -1.2207404660168e-10
  13    0.0032027092081934
  14    0.0087655676196337
  15    -0.0021303340697209
  16    8.7631420315773e-11
  17    -0.0042591132515315
  18    2.3217718781093e-11
  19     0.012772123954247
  20    -0.0052920680943776
  21    9.9763142540749e-11
  22    -0.00060676342026828
  23    2.1339276252367e-11
  24     0.025253671853624
  25      0.22902017147183
  26     0.089841093027222
  27    -0.015056032363249
  28      0.14089274219073
  29    -1.4939233730638e-09
  30    -0.044776294157227
  31    0.0057733395851194
  32    -7.7838107387025e-10
  33    -0.059618614802825
  34    -0.0024514190760934
  35    -6.0128752041559e-11
  36    -0.013757627649275
  37    0.0052029963341375
  38     0.010006883128349
  39    -1.1434266147533e-10
  40    0.0064302271715582
  41    -6.9083078754069e-11
  42    -0.0017079155408917
  43    0.0028914195365885
  44    6.8733122217008e-12
  45    -0.012729101673966
  46    -4.1558001506224e-11
  47      0.17826847484986
  48     0.015893481922549
  49    -0.00035017999891336
  50    -0.018635455559477
  51    -4.2492013641705e-11
  52     0.014195124772652
  53    0.0045802346856897
  54    -1.1089845107874e-11
  55    0.0023878513243998
 Sym= A
 Ene=               6
 Spin= Alpha
 Occup=    1.00000
   1    -0.091531041528511
   2    -0.010909284180952
   3    -0.0021687516334576
   4    0.0054504833356765
   5    0.0097043668117343
   6    -6.4650702453163e-09
   7     0.012749786978311
   8    0.0050498435316138
   9    -3.9257566292782e-09
  10    0.0042165605727104
  11    0.00047657910837384
  12    -4.3912715800877e-10
  13    -0.0012602127223109
  14    -0.0016849815182884
  15    -0.0010488247030921
  16    3.1522788603825e-10
  17    -6.3534274068437e-05
  18    8.3518875962619e-11
  19    -0.0013281641951861
  20    -0.0010168195014336
  21    3.5887136724633e-10
  22    -0.00033269128280315
  23    7.6761875385419e-11
  24       1.0004470406608
  25    -0.0035399256337602
  26      -0.0323278720006
  27    -0.0095133798049757
  28    -0.0010289894149038
  29    -5.3739551996105e-09
  30    -0.0080515740554486
  31    -0.0058306240126922
  32    -2.7999970315449e-09
  33    -0.0029969944547334
  34    -0.0025219960666746
  35    -2.1629392672336e-10
  36    3.8175301493093e-05
  37    -0.00023923653256571
  38    -0.00049049642814878
  39    -4.1131431474659e-10
  40    0.00036212850482253
  41    -2.4850630113432e-10
  42    -0.0019029202906292
  43    -0.00089590848786993
  44    2.4725482888588e-11
  45    -0.00020680791615959
  46    -1.4949158662257e-10
  47    -0.0044452706070089
  48      0.01398383333711
  49    0.0015356869683486
  50    0.0016712563622045
  51    -1.5285296115596e-10
  52    -0.0010876968487839
  53    -0.0054458813333847
  54    -3.9893658864084e-11
  55    0.0038920128009572
 Sym= A
 Ene=               7
 Spin= Alpha
 Occup=    1.00000
   1       1.0019090294288
   2    0.0074765326970111
   3    -0.043977364522913
   4    -0.010690976665636
   5    -0.00078799501309743
   6    1.508433165077e-09
   7    0.00058979590951346
   8    0.0041152521017606
   9    9.1595837099096e-10
  10     0.019212427499055
  11    0.00053886681392771
  12    1.0245661497977e-10
  13    0.0015590574482425
  14    3.3212494665187e-05
  15    3.4257534310528e-05
  16    -7.3549349002025e-11
  17    2.7585770738056e-05
  18    -1.9486764911519e-11
  19    -0.004211540182296
  20    -0.0019616699797217
  21    -8.3731003318028e-11
  22    -0.0001741722019469
  23    -1.7909891480323e-11
  24     0.090932260199043
  25    -0.0051925258679955
  26     0.022135086916823
  27    0.0062989387664088
  28    -0.00025462802511075
  29    1.2538536917551e-09
  30    -0.00091988160619849
  31    0.0059441451061797
  32    6.5329783022292e-10
  33     0.021009199386466
  34    -3.2285019045094e-05
  35    5.0466308115341e-11
  36    0.0023990012548278
  37    -0.00043001930689247
  38    -0.00065188755667616
  39    9.5968087261132e-11
  40    0.00014092302357288
  41    5.798161877147e-11
  42    0.0052131112451327
  43    0.0039810276421366
  44    -5.7681225866843e-12
  45    0.00083179738984891
  46    3.4879832226335e-11
  47    -0.0018877869134376
  48    0.0051241319373844
  49    -0.00019369550800687
  50    0.00062537679286544
  51    3.5663681490766e-11
  52    -0.00092150057281146
  53    -0.0020545290174087
  54    9.3078842183416e-12
  55    0.00042580458745492
 Sym= A
 Ene=               8
 Spin= Alpha
 Occup=    0.00000
   1    -3.4186433356699e-11
   2    -4.6587277672636e-11
   3    9.4460698945497e-10
   4    1.1954228625296e-09
   5    2.6686769614753e-11
   6     -0.48760865866062
   7    1.3702735180989e-11
   8    -1.2258747833029e-10
   9     -0.37399535850067
  10    -5.7339742462238e-10
  11    -1.3787664228628e-11
  12     -0.16917142308798
  13    -1.690820380731e-10
  14    -3.6917141181175e-12
  15    1.570013964616e-10
  16    -0.0035589760445151
  17    -2.2625119491928e-10
  18    -0.0032235404802461
  19    1.9031943228422e-10
  20    -9.1643267865078e-11
  21    0.0050667429904593
  22    2.2308310121368e-13
  23    -0.0069131800612577
  24    1.4970421557702e-11
  25    -1.6783475233911e-12
  26    -1.0657921444371e-09
  27    -1.1020889124037e-09
  28    -3.1964572084178e-11
  29      0.53362442667975
  30    2.2274637660396e-11
  31    -3.853196037364e-10
  32      0.41133384139953
  33    -7.5204709615261e-10
  34    -1.3726856678794e-10
  35      0.16839974050959
  36    -3.0748279166568e-10
  37    3.2370161155848e-11
  38    9.4976931522264e-11
  39    -0.011355918367623
  40    -2.6244297871069e-10
  41     0.017921411636854
  42    -3.2568802717464e-10
  43    -3.3633049701094e-10
  44    -0.0072164959265595
  45    1.1640570600286e-10
  46     0.020529196934675
  47    -9.8629708616851e-11
  48    2.8993857933573e-10
  49    1.9450507787731e-11
  50    -1.7556704378773e-10
  51     0.021614560713778
  52    3.5474734842549e-11
  53    -1.5847589934684e-11
  54     0.037367404419174
  55    9.0910858789872e-11
 Sym= A
 Ene=               9
 Spin= Alpha
 Occup=    0.00000
   1    1.9696766176559e-09
   2    3.0297320647829e-09
   3    -2.1411011291858e-08
   4    -2.1309158448525e-08
   5    -1.6954540513831e-09
   6      0.27951994735296
   7    2.608664787942e-09
   8    8.912249913816e-09
   9     -0.02822008877986
  10    1.5924260109533e-08
  11    1.5822932857165e-09
  12     -0.61963020303784
  13    5.7272749654604e-09
  14    9.1839530488564e-10
  15    3.5654706489452e-09
  16    -0.022799069818902
  17    -6.6856178755317e-09
  18     0.082191972070662
  19    -6.040842864887e-09
  20    -7.5529856878079e-09
  21     0.035797286285841
  22    5.9070217914142e-09
  23      0.11510740225385
  24    -8.7702467967959e-10
  25    -1.698898631103e-09
  26    3.6496587774274e-08
  27    2.4797973641257e-08
  28    -1.3252664364721e-09
  29       0.1531744294642
  30    4.2383085761608e-09
  31    6.9186986973307e-09
  32     -0.22959004001889
  33    1.4652857470188e-08
  34    3.4377426738531e-09
  35     -0.18758287908762
  36    5.0590985075252e-10
  37    6.9895681491753e-09
  38    6.7657285738322e-09
  39    -0.029282039521057
  40    2.743159205814e-09
  41      0.22271852458856
  42    -8.074501873674e-10
  43    -9.4965239536115e-10
  44     -0.05737965706806
  45    -2.8949689503073e-09
  46      0.24317791445366
  47    3.2777552689545e-09
  48    -1.6581834595581e-08
  49    -3.4362337874608e-09
  50    -2.1699220781869e-09
  51     0.050082384366216
  52    -4.3370884532208e-10
  53    4.168964617759e-09
  54      0.56636345532456
  55    -5.0085095320872e-09
 Sym= A
 Ene=              10
 Spin= Alpha
 Occup=    0.00000
   1     0.017909633127899
   2      0.18899025765744
   3      0.46992149192009
   4     -0.18144818664576
   5     -0.11348530593342
   6    -1.0068594385825e-09
   7     -0.19672208147742
   8     -0.11352759612732
   9    2.2538354977522e-09
  10     -0.26843285476658
  11      0.37955653877569
  12    1.4971807423188e-09
  13     -0.25336700164433
  14    -0.054940813729837
  15    -0.0032026584068877
  16    -5.0378502670299e-09
  17    -0.090607447072115
  18    -2.8064847560917e-09
  19     -0.10761730651294
  20     0.042812620503342
  21    3.8571582939109e-09
  22     -0.11745131815563
  23    -2.7438904793977e-09
  24    -0.025047247293716
  25     -0.22527957798397
  26     -0.53492405534921
  27      0.36932099226046
  28    -0.038451843817607
  29    -6.8727285259536e-10
  30     -0.14211060678119
  31     -0.10070060193057
  32    5.3025043525612e-09
  33     -0.39486601542007
  34     -0.45861569494928
  35    -2.6804982623433e-10
  36     -0.13577922885568
  37      0.15895272903268
  38    0.0018252830983075
  39    6.896428597668e-09
  40      0.25341148195746
  41    -2.7650787640293e-09
  42     0.063516538578842
  43     0.003952214040886
  44    -1.1583954758473e-08
  45      0.33751839928832
  46    9.2393064271149e-09
  47       0.1133186760416
  48     -0.12638301750233
  49    -0.098408037202288
  50    -0.017104168228443
  51    -1.4182166829893e-08
  52    -0.0058733722961175
  53     -0.11112236620434
  54    -7.2984188177718e-10
  55    -0.0095203178603883
 Sym= A
 Ene=              11
 Spin= Alpha
 Occup=    0.00000
   1    2.7675476691564e-09
   2    -4.074465708811e-09
   3    -1.9129469977462e-07
   4    -3.6303914415288e-07
   5    -4.0790586590544e-09
   6      0.12622472222456
   7    -2.090672401979e-08
   8    7.3029189528263e-08
   9     0.059852454347624
  10    1.6024003104703e-07
  11    2.1413202433647e-08
  12      0.17920368376685
  13    8.8202089781954e-08
  14    4.3272536601796e-09
  15    4.0197535591657e-09
  16     -0.24721917735791
  17    -1.2402442106243e-08
  18    -0.072202877565297
  19    -2.185139544477e-08
  20    -5.1267439050769e-08
  21     -0.37985333140877
  22    2.561949474573e-08
  23     -0.12198666003811
  24    1.1287130288988e-08
  25    2.5961523382788e-08
  26    1.1205507399582e-07
  27    1.6482817129944e-07
  28    1.6907503488469e-08
  29     -0.53946460870764
  30    -1.2939037736746e-08
  31    -2.3812330635222e-08
  32     -0.19470531389979
  33    2.5798182040218e-07
  34    -2.3090198294117e-09
  35      0.50243174337892
  36    8.1849766345148e-08
  37    -7.5594409675658e-10
  38    -2.70625325609e-08
  39     -0.31995332343046
  40    2.562643732476e-08
  41      0.19885176005072
  42    6.4140892643763e-08
  43    3.1504597089942e-08
  44     -0.30980060739096
  45    -1.8816770871193e-08
  46     0.047917654734936
  47    -1.0531346988186e-08
  48    2.3704240539166e-07
  49    1.8942922076186e-08
  50    9.6797819584731e-09
  51     0.016017892879963
  52    -1.818459198083e-08
  53    -7.9317223710767e-08
  54      0.12916794407514
  55    4.6202069926921e-08
 Sym= A
 Ene=              12
 Spin= Alpha
 Occup=    0.00000
   1    -1.837540711471e-08
   2    -4.1431293522625e-08
   3    4.168848887632e-08
   4    -7.6148555565839e-08
   5    1.0421338648393e-08
   6    -0.069338095079143
   7    -1.5998977293715e-08
   8    1.1418533952116e-08
   9     -0.54513245910703
  10    2.1627574571765e-08
  11    2.8272110199294e-08
  12     -0.37442512676367
  13    -6.7057836012848e-09
  14    -1.6278241946621e-08
  15    -3.5122976436566e-09
  16     -0.19413120717261
  17    7.5699670959478e-09
  18      0.24607712021597
  19    3.7809932305339e-09
  20    -5.0499895300845e-09
  21     0.072010493599971
  22    2.8589826755906e-09
  23      0.24962212670136
  24    -5.9029212782587e-09
  25    -1.0797150234107e-08
  26    8.2359139940564e-08
  27    3.5684984009013e-08
  28    2.9569926038891e-08
  29       0.0386233458959
  30    -1.4403861226408e-08
  31    -3.1553071428483e-08
  32    0.0097765131932179
  33    9.1874231454066e-09
  34    -1.2067639559358e-08
  35      0.51980416157682
  36    3.3570382341229e-08
  37    -1.1789310883552e-09
  38    -3.3203640791494e-12
  39      0.66624526807337
  40    1.7127806451722e-08
  41     0.068945022230534
  42    2.9111703848955e-08
  43    -4.0377560266856e-09
  44      0.59162533807889
  45    -4.5350299149142e-08
  46     -0.01201299611026
  47    5.8778423815761e-09
  48    -2.9844989446598e-08
  49    2.944645506436e-09
  50    4.3128003281441e-08
  51    -0.025779656111183
  52    1.0524022490904e-08
  53    2.7052748827175e-08
  54      0.25810278013974
  55    -2.378557423538e-08
 Sym= A
 Ene=              13
 Spin= Alpha
 Occup=    0.00000
   1     2.37732025201e-08
   2    5.9536730077398e-08
   3    -7.7360960433633e-08
   4    3.4950861467805e-07
   5    -8.828668138679e-10
   6     -0.30495937283244
   7    4.3965169404733e-08
   8    -3.9241459885602e-08
   9      0.34805726425624
  10    -1.1562377620946e-07
  11    -1.0437149147366e-08
  12       1.2972440517033
  13    -1.3200322437534e-07
  14    -1.8125488060149e-10
  15    -1.2885871405072e-08
  16     -0.31137509506737
  17    -1.9195684860835e-08
  18      0.14518158595866
  19    2.610534039924e-08
  20     3.86063390846e-08
  21     -0.28045099247321
  22    1.9652014716147e-08
  23     -0.11104130161672
  24    2.0076951366767e-08
  25    5.4476880739469e-08
  26    -6.3066593968269e-08
  27    -1.2676575308577e-07
  28    3.8264541584689e-08
  29      0.24928202503869
  30    -2.6349211099421e-08
  31    1.0918299088412e-08
  32      -0.5226068769072
  33    -9.0663445708667e-08
  34    8.5393774881698e-10
  35     -0.94556130952093
  36    -1.9959828782289e-08
  37    -9.819291783197e-09
  38    1.692775935765e-10
  39     -0.20239810925716
  40    4.1625921112757e-08
  41      0.19498733313326
  42    3.1340035221837e-08
  43    6.2201361549395e-08
  44     -0.24970419068131
  45    -7.0524281585044e-08
  46      0.25388319750571
  47    3.9893065072839e-08
  48    -2.0635332419677e-07
  49    -3.9193790708088e-08
  50    9.2877371782448e-08
  51    0.0067714197219284
  52    -3.5962946812796e-08
  53    6.325245808541e-08
  54     -0.27095178097938
  55    -6.166043621082e-08
 Sym= A
 Ene=              14
 Spin= Alpha
 Occup=    0.00000
   1    1.3652120836699e-06
   2    1.801687464609e-06
   3    -2.8464689940312e-05
   4    -3.801010357643e-05
   5    7.5563055174619e-07
   6     -0.24289240888669
   7    -3.0351196628537e-06
   8    5.0100343942845e-06
   9     -0.10362917065994
  10    2.0417407895566e-05
  11    4.9510363748339e-06
  12      0.03123059099094
  13    5.3433824149398e-06
  14    1.5677283300799e-06
  15    -4.0028681394711e-07
  16    -0.032571000582348
  17    2.0124993644259e-06
  18      0.12890735216347
  19    -5.7828259563054e-06
  20    -5.00266663973e-06
  21     0.085216382065108
  22    4.455968725902e-07
  23     0.030780958095862
  24    1.4220255983096e-06
  25    2.4533025403553e-06
  26    1.5695150361824e-05
  27    2.6546468983245e-05
  28    1.4162637051714e-07
  29     -0.82695303713485
  30    2.6998450838651e-07
  31    3.4410522270224e-07
  32       1.6448590598813
  33    3.1835259657974e-05
  34    1.4205530138514e-06
  35      -0.7093525561585
  36    1.4152234127206e-05
  37    -3.0797515366661e-07
  38    -4.5939755210486e-07
  39      0.16558222414268
  40    -8.0227576444166e-07
  41     -0.13096393243224
  42    7.287944570775e-06
  43    7.888683098221e-06
  44     0.035586014697511
  45    -4.8199478730399e-07
  46      0.32960510585827
  47    3.3210989179394e-06
  48    1.984611326754e-05
  49    -2.7321276899262e-06
  50    -6.9997499153091e-07
  51     0.067165981453793
  52    3.9823570076957e-06
  53    -8.4315775463389e-06
  54     -0.47659695051325
  55    -7.2216794545291e-06
 Sym= A
 Ene=              15
 Spin= Alpha
 Occup=    0.00000
   1    -1.9641615741008e-06
   2    -3.2694881282894e-06
   3    4.4686840017349e-06
   4    8.8595425538426e-06
   5    5.2244263212644e-07
   6      -0.8746224622658
   7    1.5459858073184e-06
   8    -7.1753652544153e-06
   9       1.9406475958854
  10    -7.5208439342799e-06
  11    -7.5646279517754e-06
  12     -0.83062339560605
  13    -5.3146093106634e-06
  14    8.1227654901917e-07
  15    -1.8262051033701e-06
  16      0.22903559282297
  17    -1.4110283445816e-06
  18    -0.066343239192181
  19    2.4819301680861e-06
  20    5.9638866554927e-06
  21     -0.34843362755017
  22    4.4950161473523e-07
  23     -0.14162474463093
  24    -1.5790742276285e-06
  25    -2.8428284805143e-06
  26    3.7766168100256e-06
  27    2.9220427152977e-05
  28    -3.7459292110697e-06
  29     0.030053814100033
  30    -5.2338930043083e-06
  31    8.648122767693e-06
  32      -1.1585541459261
  33    -8.3158309268978e-06
  34    9.1365785166765e-06
  35      0.59018910243511
  36    -8.4487278932885e-06
  37    4.149228846915e-06
  38    7.190764492668e-06
  39     0.048514365696164
  40    -2.0608640611927e-06
  41      0.13375675836022
  42    2.5183115041416e-06
  43    8.166320544536e-06
  44     -0.53051327402638
  45    -8.2355323202746e-06
  46      -0.2008981337238
  47    1.2339486710222e-05
  48    -4.6864000546167e-05
  49    -9.6318087440442e-06
  50    -2.0615231450384e-07
  51     0.015153742933285
  52    6.0637444750607e-06
  53    1.922556110275e-05
  54      0.38469973465633
  55    -4.6852834749718e-06
 Sym= A
 Ene=              16
 Spin= Alpha
 Occup=    0.00000
   1    -0.0067408067843162
   2    -0.032260550067529
   3      0.11131460616475
   4       0.4702616248127
   5     -0.13459973474453
   6    -0.044728092711462
   7    0.0079989895203049
   8     -0.17178755499828
   9      0.39302084697859
  10     -0.10547087283135
  11       1.0734777671981
  12     -0.66712821371831
  13       0.5115633908677
  14    0.0089388635285575
  15     0.014963633446755
  16     -0.22959301185906
  17     0.013200182461127
  18     0.040083599105056
  19     0.027617136775035
  20    -0.030181361659982
  21     -0.14928231857147
  22    0.00096970088248484
  23     -0.14409532017195
  24    0.0016926031058571
  25     0.030941811020095
  26      0.12545364817201
  27      0.79049122556337
  28    -0.018566364761994
  29    -0.009083082028944
  30     0.055427080294477
  31    -0.055343578561262
  32    -0.052756651535551
  33     -0.12298902984417
  34    -0.050038738019296
  35      0.70028417840762
  36     -0.88539329642163
  37    -0.0052328752384038
  38    0.0052675867479705
  39     -0.22082234646053
  40    -0.034160602001882
  41    0.0012334670793602
  42    -0.042105500129388
  43     -0.12397523389534
  44     -0.10843428899898
  45    -0.034776198984312
  46      0.11666314830412
  47    -0.043948138031334
  48     -0.60118277750348
  49      -0.6104742519317
  50     0.010658277108752
  51    -0.014574569484025