[Molden Format]
made by pyscf v[2.13.1]
[Atoms] (AU)
O   1   8     0.21099695469856     0.00000000000000     2.15462460678861
N   2   7    -0.44776862100326     0.00000000000000    -0.03589262653049
H   3   1     1.18163474748449     0.00000000000000    -1.17386889907833
[GTO]
1 0
 s    8 1.00
                 11720  0.00070964594651845
                  1759  0.0054672722921914
                 400.8   0.027823118610189
                 113.7    0.10474773971146
                 37.03    0.28292084635691
                 13.27    0.44849523869833
                 5.025    0.27081688521277
                 1.013    0.01545029160744
 s    8 1.00
                 11720  -0.00031444341168873
                  1759  -0.0024821376810179
                 400.8  -0.012316355381583
                 113.7  -0.050538917343672
                 37.03   -0.13938490331632
                 13.27   -0.32507749481778
                 5.025   -0.22984830758785
                 1.013     1.0953793467883
 s    1 1.00
                0.3023                   1
 s    1 1.00
               0.07896                   1
 p    3 1.00
                  17.7   0.062679166281506
                 3.854    0.33353656587936
                 1.046    0.74123964163973
 p    1 1.00
                0.2753                   1
 p    1 1.00
               0.06856                   1
 d    1 1.00
                 1.185                   1
 d    1 1.00
                 0.332                   1

2 0
 s    8 1.00
                  9046  0.00069961741342552
                  1357  0.0053860546299287
                 309.3   0.027391021189057
                 87.73    0.10315059198201
                 28.56    0.27857066331743
                 10.21    0.44829484945412
                 3.838    0.27808592839527
                0.7466   0.015431561233271
 s    8 1.00
                  9046  -0.00030499009595337
                  1357  -0.0024080263785077
                 309.3   -0.01194444872518
                 87.73  -0.048925992909017
                 28.56   -0.13447272472496
                 10.21   -0.31511257770011
                 3.838   -0.24285783254964
                0.7466     1.0943822068542
 s    1 1.00
                0.2248                   1
 s    1 1.00
               0.06124                   1
 p    3 1.00
                 13.55   0.058905676772132
                 2.917    0.32046110671427
                0.7973    0.75304206179207
 p    1 1.00
                0.2185                   1
 p    1 1.00
               0.05611                   1
 d    1 1.00
                 0.817                   1
 d    1 1.00
                  0.23                   1

3 0
 s    3 1.00
                 13.01   0.033498726389998
                 1.962    0.23480080117413
                0.4446     0.8136829578829
 s    1 1.00
                 0.122                   1
 s    1 1.00
               0.02974                   1
 p    1 1.00
                 0.727                   1
 p    1 1.00
                 0.141                   1

[5d]
[7f]
[9g]

[MO]
 Sym= A
 Ene=               0
 Spin= Alpha
 Occup=    1.00000
   1    -0.0029983216100698
   2     -0.01789769117442
   3    -0.017126164189305
   4    -0.011588230709179
   5      0.52490560369537
   6    5.2109422518805e-17
   7    -0.087754838750897
   8      0.36671589513092
   9    -6.6440716345437e-17
  10    -0.068734933329576
  11      0.12528937196867
  12    6.6767232817247e-16
  13    -0.022454667190948
  14    -0.00059874966025198
  15    -0.0026588735019481
  16    5.4335859475717e-17
  17    -0.00082179160756681
  18    -2.1955420275366e-17
  19    0.0012881448082524
  20    -0.0017071707584456
  21    -2.786124997098e-17
  22    -0.0015258489957272
  23    4.5243255395395e-17
  24    -0.0005613889178624
  25      0.12907492144959
  26      0.27371370697562
  27      0.16415021800659
  28     -0.36271902923456
  29    -7.0392818112678e-17
  30    -0.049362565541435
  31     -0.22334913122411
  32    1.5339208023931e-16
  33    -0.032809253678151
  34    -0.074982142348729
  35    -5.708738195528e-16
  36    -0.0039463072167454
  37    -0.010925569154003
  38     0.022779994245374
  39    1.6360777003536e-17
  40      -0.0105737398119
  41    -1.6731734604729e-18
  42    0.00032946143790712
  43    0.0026411421133432
  44    -1.5843024218548e-17
  45    0.00025822002125613
  46    -4.9197129620559e-17
  47      -0.2743079787394
  48     -0.18722637198097
  49    -0.037866447495295
  50    0.0026362812903646
  51    1.0290111921382e-16
  52    -0.0091466661840662
  53    -0.018550523130036
  54    -1.7402261531203e-16
  55     0.019174555192242
 Sym= A
 Ene=               1
 Spin= Alpha
 Occup=    1.00000
   1    5.0073770937922e-15
   2    -1.2795318412419e-13
   3    -2.417372986424e-13
   4    -1.6785961579468e-13
   5    -3.4524353336839e-13
   6      0.48293643377382
   7    -3.504335097618e-13
   8    -1.8714606926429e-13
   9      0.29325120273613
  10    -1.386550873686e-13
  11    -1.2816588893046e-15
  12     0.032802356604109
  13    1.143441058769e-14
  14    9.0629553517404e-15
  15    2.0674012104747e-14
  16    -0.023547370697403
  17    5.8799094779218e-15
  18    -0.0062388229740347
  19    -9.2817268332397e-15
  20    1.6710882727567e-14
  21    -0.026807233320924
  22    1.3673520329865e-15
  23    -0.0057340089517254
  24    6.8827235860638e-15
  25    6.9769427445764e-14
  26    1.1408960261055e-13
  27    1.1917562675891e-13
  28    -2.448635500526e-13
  29      0.40143086921762
  30    4.0653383711674e-13
  31    -6.4417523602768e-14
  32      0.20915817645098
  33    1.2467650788822e-13
  34    4.8917214976887e-15
  35     0.016157129053395
  36    2.9004813119368e-14
  37    2.9190664130661e-14
  38    1.1512727200239e-14
  39      0.03072491661808
  40    -1.4762948240097e-14
  41     0.018563257983275
  42    -9.9296730675616e-15
  43    -4.504166295328e-15
  44    -0.0018467998350396
  45    1.3381540839065e-14
  46     0.011167004887345
  47    -3.0300812900815e-13
  48    -1.1993839344839e-13
  49    -1.3901237071932e-14
  50    1.8829316112976e-14
  51     0.011418005103861
  52    -1.1310800691832e-14
  53    7.5753040171015e-15
  54    0.0029799986058222
  55    -1.6647350842266e-14
 Sym= A
 Ene=               2
 Spin= Alpha
 Occup=    1.00000
   1    0.0014259293302305
   2     -0.01581393917976
   3    -0.023488110335426
   4    -0.035677840828461
   5     -0.35577183832839
   6    -4.7352534382255e-13
   7    -0.064117266566331
   8     -0.20706764795608
   9    -2.8771916486576e-13
  10    -0.023348245241698
  11    -0.011302678969606
  12    -3.1228802782291e-14
  13    0.0016755990366605
  14    -0.003646995436882
  15     0.018746987075266
  16    2.3083077729315e-14
  17    0.0052559532067015
  18    6.1078446541162e-15
  19    -0.011319105188399
  20     0.019809987728699
  21    2.6367962558373e-14
  22    0.00036124856918091
  23    5.6647235005052e-15
  24    0.0030360143323065
  25    -0.025387800191901
  26     0.034987200574788
  27      0.04487475390308
  28      -0.3594870984921
  29    -3.9349677925779e-13
  30      0.26051319801793
  31     -0.12058379361302
  32    -2.0497788449502e-13
  33     0.039452756361284
  34    -0.0092531641529497
  35    -1.6449031801863e-14
  36    0.0049417988278801
  37     0.024733328199442
  38    -0.0010004583286768
  39    -3.0139744868323e-14
  40    -0.019062104917097
  41    -1.8215021799157e-14
  42    -0.015382487225776
  43    -0.014932670187411
  44    1.8857135400168e-15
  45     0.012439557712746
  46    -1.0873601009803e-14
  47     -0.32468182203511
  48     -0.10154842243736
  49    -0.0072786092682908
  50     0.021066713967785
  51    -1.1206790060913e-14
  52    -0.017149668982894
  53    0.0035705368018527
  54    -3.0279220317398e-15
  55    -0.015044568354932
 Sym= A
 Ene=               3
 Spin= Alpha
 Occup=    1.00000
   1    -0.0045258268116922
   2    -0.040579341720457
   3    0.0021234075721205
   4     0.080312279009804
   5     -0.16731973995602
   6    1.5700782511104e-13
   7      0.38742036392392
   8     -0.10484728590054
   9    9.4634954186953e-14
  10       0.1974507178783
  11    -0.021677964626092
  12    1.1376847276411e-14
  13    0.0059704398841343
  14    -0.014748998494392
  15    0.0036396773350399
  16    -7.7275780256284e-15
  17    0.0018568902804704
  18    -2.0868455133477e-15
  19    -0.0017745588462045
  20    0.0063656731026626
  21    -8.3417122813759e-15
  22    0.0020649253577655
  23    -1.6333968989976e-15
  24    -0.0068645967491425
  25      0.19404580044165
  26      0.27057635924639
  27    -0.0017169468801426
  28     -0.23270194673442
  29    1.3014493113267e-13
  30     -0.36790321876708
  31     -0.13707664615426
  32    6.8303522681671e-14
  33      -0.1215349722731
  34    -0.014922902911206
  35    3.9603379845553e-15
  36    -0.016886529295387
  37    -0.010014576550558
  38    -0.037019345031442
  39    9.9237002555856e-15
  40    -0.010599235100797
  41    6.0402449200214e-15
  42     0.012702849955798
  43    0.0045399828272936
  44    -1.1096078701354e-16
  45    -0.015847871706227
  46    3.6256387733302e-15
  47      0.14366890602678
  48     0.051235357479705
  49    0.0026577922031961
  50    -0.017974941913335
  51    3.6973367444113e-15
  52    -0.00031300327821875
  53    -0.010498196184228
  54    1.3555219768111e-15
  55    -9.1853821872375e-05
 Sym= A
 Ene=               4
 Spin= Alpha
 Occup=    1.00000
   1    0.0026654391272507
   2      0.10848785014615
   3      0.26448708290951
   4      0.14680574252909
   5      0.12420452852029
   6    2.076197836051e-13
   7      0.36385525035402
   8     0.049278907515425
   9    1.2677417860649e-13
  10      0.13762509967972
  11    -0.0020145595099418
  12    1.3715257915537e-14
  13    -0.014267694152617
  14    -0.020307296646151
  15    -0.010045800646503
  16    -1.0135168799203e-14
  17    -0.001921394365531
  18    -2.6585906942431e-15
  19    -0.0086160069159074
  20    -0.0010338405319572
  21    -1.1665180843844e-14
  22    -0.0033727276967094
  23    -2.594900846959e-15
  24    -0.0089997052753965
  25     -0.40974602113208
  26     -0.35756606464339
  27    -0.094211561665258
  28    -0.079480755042408
  29    1.725616097411e-13
  30     -0.11851640672196
  31    -0.0061850254989093
  32    8.948300700127e-14
  33    -0.066578119070285
  34    -0.010509594283173
  35    7.2128690078933e-15
  36    -0.020794540349779
  37    -0.010937831469317
  38    -0.0058609120051496
  39    1.3188177938541e-14
  40    -0.00099750948021445
  41    7.9690149222077e-15
  42    -0.010681915323285
  43     -0.01736201521772
  44    -1.1642527636236e-15
  45     0.011608082327416
  46    4.6890296807229e-15
  47      -0.1409880579967
  48      0.01773986255598
  49     0.005398361289071
  50      0.01863722030011
  51    4.9092508059946e-15
  52     -0.01455770720077
  53    -0.0084279630290068
  54    1.2278871100016e-15
  55    0.0069506614252439
 Sym= A
 Ene=               5
 Spin= Alpha
 Occup=    1.00000
   1    -0.0069625340164437
   2      0.47299218324436
   3      0.56543526664525
   4     0.090475725973523
   5    -0.016448967543163
   6    8.1578475469239e-14
   7     0.031119107492782
   8    -0.011329634328942
   9    4.9163780217689e-14
  10    -0.0021482275123318
  11    -0.001414436488583
  12    5.5895295845192e-15
  13    0.0021582187081063
  14     0.004946543746323
  15    0.0049502032580641
  16    -3.9820178213518e-15
  17    -0.0028285995802289
  18    -1.0766067292199e-15
  19    0.0067380069651994
  20    0.0038102212507643
  21    -4.4775049181755e-15
  22    -0.0015628852936653
  23    -8.1157072415071e-16
  24    0.0051758895277719
  25      0.10813628937909
  26     -0.03299674738429
  27    -0.033572624765767
  28     0.011192088025711
  29    6.7780578920105e-14
  30      0.11418613027032
  31    -0.022372435043496
  32    3.533859461101e-14
  33     -0.04766969774229
  34    -0.0018053265336159
  35    2.5754026037535e-15
  36    -0.016624572577175
  37     0.019357948521927
  38     0.012626949892341
  39    5.1608699215704e-15
  40    -0.00082715112827194
  41    3.1305945867147e-15
  42    -0.015277773723022
  43    -0.010500472459229
  44    4.3571756736455e-17
  45    -0.0029216864569216
  46    1.8266453968471e-15
  47    -0.0009262615410542
  48    -0.022589452580183
  49    0.0001613900062218
  50    -0.0031986650656003
  51    1.9693823519467e-15
  52    0.0042923970601875
  53    0.0084536881334323
  54    6.4978948656172e-16
  55    -0.0055298608346966
 Sym= A
 Ene=               6
 Spin= Alpha
 Occup=    1.00000
   1     0.012464317833988
   2    -0.0042322173363892
   3    -0.0037273754157946
   4    0.0017462144945326
   5    0.00022662226332505
   6    7.4604953500992e-16
   7     0.003647207746065
   8    0.00031681129136822
   9    -2.2555759196704e-15
  10    0.0028368708164073
  11    -0.00025681067522826
  12    -1.9479807019312e-15
  13    -0.00046150176726032
  14    -0.0010176043918322
  15    -0.00051562468961962
  16    -8.1404324583486e-16
  17    -2.0290933435069e-05
  18    -2.6417288875366e-16
  19    -0.0014314566418617
  20    -0.0009799075652698
  21    2.9112511947032e-15
  22    -0.00025963345444827
  23    6.9721618591339e-16
  24       1.0055558113359
  25     0.010394648054801
  26    -0.020047626491528
  27    -0.0072823562329496
  28    0.0010640323795027
  29    6.3684110928446e-16
  30    -0.0018619638177973
  31    -0.0052464197536037
  32    3.9283500980206e-15
  33    0.00027947235224078
  34    -0.0019063969118205
  35    1.5841244280256e-15
  36    0.00058844597827338
  37    0.00058350527311084
  38    -0.00037985690418817
  39    2.0414711932274e-16
  40    0.00031845482162059
  41    7.0597723124324e-17
  42    -0.0013641623334095
  43    -0.00022826771558356
  44    2.4086191586009e-15
  45    -0.00052330848621211
  46    1.1406503533815e-15
  47    4.590821816889e-05
  48     0.014160007290532
  49    0.0015284626779477
  50    0.0011268728660543
  51    -1.0500502668546e-16
  52    -0.00068394455121851
  53    -0.0051227499430081
  54    -4.0614707607127e-16
  55    0.0034150190813991
 Sym= A
 Ene=               7
 Spin= Alpha
 Occup=    1.00000
   1       1.0059809003799
   2     0.012283711976259
   3    -0.039835585852265
   4    -0.011134143168018
   5    -0.00063395489125313
   6    -7.114927376218e-16
   7    -0.0024968096023081
   8    0.0044886575304386
   9    -5.1746621705461e-16
  10     0.017815449534082
  11    0.0007736646080868
  12    -1.0910014859285e-16
  13    0.0017350742783797
  14    0.0003775315427487
  15    0.00019104446147575
  16    6.2532037400953e-17
  17    3.5032613795045e-06
  18    -9.2171853918795e-18
  19    -0.0039056706371995
  20    -0.0018616958405614
  21    8.4341248942447e-17
  22    -0.00013705924473616
  23    1.0899606970838e-18
  24    -0.012681216602903
  25    -0.00098638579120962
  26     0.027712593615374
  27    0.0077140367442096
  28     0.000596673761195
  29    -6.0695818221115e-16
  30    0.00075028247053145
  31    0.0061728308344362
  32    -2.7332802200348e-16
  33      0.02095124279831
  34    0.00013803611932714
  35    -4.5074874145882e-17
  36    0.0023254807441972
  37    -0.00025349649048333
  38    -0.00040595985949931
  39    -5.6230504339274e-17
  40    0.00012872536096058
  41    -2.7038991913382e-17
  42    0.0053506152374992
  43    0.0041061637157367
  44    4.6631037941478e-17
  45    0.0007151163612207
  46    -5.272274167923e-18
  47    -0.00023424545634113
  48    0.0032425074024451
  49    -0.00044009703579601
  50    0.00025248737285293
  51    -1.6857146929812e-17
  52    -0.00065060739949261
  53    -0.001405437858053
  54    1.4881576195314e-17
  55    1.1518610219741e-05
 Sym= A
 Ene=               8
 Spin= Alpha
 Occup=    0.00000
   1      0.00579546451217
   2    0.0011836083261107
   3     -0.18783792950841
   4      -1.5087050713413
   5     0.044126297716122
   6    -1.0031728397587e-15
   7    -0.053046739815793
   8      0.10590623667452
   9    -4.2440134219692e-16
  10     0.054477216507789
  11     0.010254736520382
  12    1.3052819297507e-16
  13      0.26911467180803
  14    -0.0096183211240824
  15    0.00020272855125863
  16    6.3190003755937e-16
  17    0.00079204408911069
  18    -1.4889099008814e-15
  19    -0.038985957434866
  20    -0.019300855079127
  21    -4.7483654183694e-16
  22     0.005773186987587
  23    -3.8101700803378e-15
  24    -0.036733024686932
  25     -0.21601075885779
  26     0.016321761930618
  27       4.6206617191724
  28     -0.13415624754906
  29    -4.8932311938688e-15
  30      0.12110278896688
  31      0.18830844135215
  32    -6.5515070689113e-15
  33      0.13915965769914
  34      0.52590232806344
  35    3.5852680146142e-14
  36     0.017131568089915
  37    -0.0031616272980787
  38    -0.0038022594747712
  39    -5.6707639699591e-16
  40    0.0087453207730536
  41    -1.2299199185469e-16
  42     0.090243512090456
  43    -0.042635489630205
  44    -4.1197396709235e-15
  45     0.025338299287217
  46    9.6722224255452e-16
  47      0.10423861657848
  48     -0.83209236824633
  49      -2.3054641427554
  50     0.033341135660794
  51    -3.6953559379153e-16
  52    -0.021338937937566
  53      0.57228395338685
  54    -1.0048878282628e-14
  55     -0.24350053357691
 Sym= A
 Ene=               9
 Spin= Alpha
 Occup=    0.00000
   1    3.8513787979701e-16
   2    1.6257410308776e-14
   3    4.1803440834711e-14
   4    -3.8308985644859e-13
   5    -4.9343488873873e-14
   6     -0.46851747830446
   7    -3.1755621456926e-14
   8    -3.8689983574001e-14
   9     -0.36178542926798
  10    -1.4237923133346e-14
  11    6.2715342594023e-14
  12     -0.22931795782057
  13    1.4172318093748e-13
  14    5.285186429945e-15
  15    -5.2562750944937e-15
  16    -0.0028668170336593
  17    8.859669141984e-15
  18    -0.0036442996915313
  19    1.2061601167876e-14
  20    -5.2283625951267e-15
  21    0.0023558730474377
  22    1.1998521436497e-14
  23    0.0034441958254666
  24    -6.1136844983322e-15
  25    2.7628938519928e-15
  26    9.8423368691921e-14
  27    8.9165920909351e-13
  28    1.3740287509355e-13
  29      0.45201768751272
  30    -1.3282238840421e-13
  31    1.3213883913732e-13
  32      0.39385102898635
  33    -7.785390529999e-14
  34    2.137063331413e-14
  35      0.29127956707366
  36    4.7616102741266e-14
  37    -1.3507358461064e-14
  38    1.5468131102704e-14
  39    -0.031110905800752
  40    -3.758752126886e-16
  41    0.0079054070981881
  42    6.6213682027973e-15
  43    2.6123341410858e-14
  44    -0.029808739377986
  45    -2.1030552272013e-14
  46       0.0373876615504
  47    -1.8342194133425e-13
  48    -3.1441108383317e-13
  49    -3.8056258152797e-13
  50    -8.5759664980644e-15
  51     0.035821162552193
  52    7.7325989338515e-15
  53    4.0573450607925e-14
  54      0.10686804077557
  55    -3.5257255016531e-14
 Sym= A
 Ene=              10
 Spin= Alpha
 Occup=    0.00000
   1    -2.2995085668586e-05
   2    -0.041111843007465
   3     -0.16303825462237
   4       1.4387270604611
   5      0.13287213693076
   6    -7.6500796057021e-14
   7    0.0035296629639671
   8     0.095907404341961
   9    -8.7984833181289e-14
  10    -0.0069790937275461
  11     -0.24373030902929
  12    -2.5602070712398e-13
  13     -0.47185721711458
  14    -0.0090792257028817
  15     0.013764034311155
  16    -5.1098254621818e-15
  17    -0.00077730181514029
  18    -3.0425253020866e-14
  19    -0.044395909725045
  20    0.0075088435707928
  21    2.3405437636386e-14
  22     0.017168932440496
  23    3.2382553111068e-15
  24    -0.0074618781025596
  25    -0.079167086150183
  26      -0.2687589702455
  27      -3.0735016804673
  28     -0.47538451564378
  29    -1.1482526648346e-13
  30      0.27282963176365
  31     -0.38653612549523
  32    7.4266184518524e-14
  33      0.19528011456057
  34      -0.1520911815068
  35    4.4949908788442e-13
  36    -0.047559824518584
  37     0.037965424012285
  38    -0.055799493886932
  39    -4.8906062917074e-14
  40    -0.0097338563213374
  41    -1.1343068659347e-14
  42    -0.0047821840005655
  43    -0.070021369340104
  44    -6.2675869313424e-14
  45     0.078854196294188
  46    9.3364679334627e-14
  47      0.59443377250407
  48      0.99082284067295
  49        1.211008462271
  50     0.018417470879334
  51    7.9264240056425e-14
  52    -0.0067291794145724
  53    -0.064848334124877
  54    2.3288057539515e-13
  55      0.16983248169223
 Sym= A
 Ene=              11
 Spin= Alpha
 Occup=    0.00000
   1     0.020262772474771
   2     0.070255638702997
   3     -0.17744315896852
   4       1.0957370369654
   5    -0.081212653517439
   6    -3.434539819184e-14
   7     -0.16683860856041
   8     -0.15224308644377
   9    -4.7602751095149e-14
  10    -0.076296392187145
  11     -0.60178282367182
  12    1.3597446408781e-13
  13     -0.51750844481881
  14    -0.021917108439784
  15    0.0083140866226224
  16    3.0010551434961e-14
  17    -0.0060048974412914
  18    -1.276169638903e-14
  19     -0.11616844780919
  20    -0.021622413093642
  21    8.1145211021178e-14
  22     0.060792783510901
  23    -4.7246416587086e-14
  24     0.037541144582813
  25      0.10843455401842
  26      0.11808582615298
  27       -0.961435427738
  28    -0.030859759911544
  29    1.6053193601244e-13
  30     -0.59503401609061
  31     0.031283466695125
  32    9.5880213688634e-14
  33    -0.058862216041681
  34      0.54788764551153
  35    -1.9345045971632e-13
  36     -0.02166303880193
  37    -0.089864158464202
  38    -0.067857713222456
  39    5.3868904645037e-14
  40    -0.022327146985933
  41    -8.2417162428096e-15
  42    0.0099431393467119
  43      0.13922038968724
  44    5.5157531861614e-14
  45     0.061246111048611
  46    -3.5188700956911e-14
  47     -0.32627973454335
  48    -0.064563262288298
  49     -0.36598172941818
  50     0.069880785379787
  51    -4.240856554189e-14
  52     0.070463690815398
  53      0.43626552179423
  54    -2.1486858835761e-13
  55      0.20115883743484
 Sym= A
 Ene=              12
 Spin= Alpha
 Occup=    0.00000
   1    -0.0033199131304446
   2      0.16413715799766
   3      0.81471384398036
   4      0.71918676026464
   5     -0.10943610805996
   6    -1.0994933078204e-13
   7     -0.52239576740436
   8     -0.20937474823513
   9    2.2769285536391e-14
  10     -0.64279939250051
  11      0.10393342836143
  12    2.0066702644738e-13
  13     -0.26898183813386
  14    -0.0096074347209792
  15    -0.00099272028848331
  16    6.4054205144813e-14
  17     0.021717921720987
  18    5.5608053928422e-14
  19    -0.0025781349191204
  20     0.018995424662034
  21    1.7029325026235e-14
  22     0.022096966771096
  23    -2.3744076169552e-14
  24     -0.18214447259152
  25     -0.64710565337997
  26     -0.79163873973778
  27      -1.0859819300737
  28     -0.31449337115631
  29    3.3098937672951e-13
  30     -0.45836460433109
  31      -0.1003991950403
  32    1.0738958466414e-13
  33     -0.63129691071348
  34     -0.35476402115516
  35    -4.3756154519448e-13
  36     0.087934286647891
  37     0.065019590213589
  38      -0.0138856000459
  39    7.6747005615992e-14
  40    -0.022260418782814
  41    3.2590506735914e-14
  42     -0.13611622152408
  43    -0.057197002107317
  44    3.695922428197e-14
  45     0.012626042988576
  46    -8.8339103672712e-14
  47      0.43484720870035
  48     -0.19334504433194
  49      0.66948645970056
  50    -0.090036512576053
  51    -3.6584250316179e-14
  52     0.042156139578541
  53     -0.38020255709295
  54    -3.6039993470736e-13
  55    0.0073228967019869
 Sym= A
 Ene=              13
 Spin= Alpha
 Occup=    0.00000
   1     -0.13304681359262
   2     -0.39856807454237
   3      0.11208244320125
   4        2.142410328072
   5      0.41455491364827
   6    -2.3224602224564e-14
   7     0.073474022870825
   8     -0.27113222798202
   9    -9.7420179353105e-14
  10     -0.32856506642495
  11     -0.32015644958207
  12    -7.8709100065567e-14
  13     -0.79619536145001
  14     0.060554903553762
  15     -0.15110396359123
  16    1.6936213567226e-13
  17      0.17719938977018
  18    6.7491954593905e-14
  19     -0.10380654611627
  20      0.10488096283237
  21    4.9191177192246e-15
  22      0.16639936061747
  23    -4.4977402422056e-14
  24     0.031705075416571
  25      0.10185393356206
  26     -0.19421486545513
  27      -1.1886864645601
  28       0.2792280165591
  29    3.1771430006358e-13
  30     0.083346482194414
  31      0.12490503467402
  32    3.2916365699558e-13
  33     -0.45161955198759
  34    -0.033729568261841
  35    -3.5300455831874e-13
  36      0.14664589528916
  37     0.077545398874799
  38      0.09892419971629
  39    9.0871926611032e-14
  40      0.08770986821544
  41    -2.9395886103147e-14
  42       0.1243094466653
  43     -0.23424301133606
  44    1.2312590214979e-13
  45      0.10451920279598
  46    -1.2985597157552e-13
  47      0.13593538919273
  48      -1.2730008234643
  49      0.26368324546588
  50     -0.01113980404453
  51    -4.9137180149942e-14
  52    -0.021956058388844
  53     0.070780907155357
  54    -4.5085094843338e-13
  55     -0.41091537018626
 Sym= A
 Ene=              14
 Spin= Alpha
 Occup=    0.00000
   1     -0.57621078531302
   2      -1.0379002791665
   3       5.1667771116687
   4       3.7249747149696
   5     0.083392713002298
   6    2.7987575577732e-14
   7     0.081859548035148
   8      -1.1752650345937
   9    1.3275160337953e-13
  10      -3.5945398986132
  11    -0.0051879885264819
  12    -1.8184633094402e-13
  13     -0.71701102005406
  14      0.27219353714564
  15     0.066906551638293
  16    7.5061352197602e-15
  17     0.047644232384198
  18    1.7475581533934e-14
  19        1.099992462383
  20       0.5683392963121
  21    -7.2664371564929e-14
  22     0.085718921543026
  23    2.9911887507307e-14
  24      0.36021245793879
  25        0.745417000844
  26      -6.9915311657072
  27      -1.8248331288263
  28     -0.71753351932026
  29    1.1041157608066e-13
  30     -0.88601112356701
  31     -0.41464198207248
  32    -3.8621489539892e-13
  33      -2.6054869387517
  34     -0.45320278623074
  35    2.4910795561593e-13
  36     -0.62470888137345
  37     -0.30341804800325
  38    -0.062291499550313
  39    4.804317629778e-14
  40    -0.084587232229723
  41    -1.2180200884233e-13
  42     -0.82809815351794
  43     -0.45640376218898
  44    -4.6686100210084e-14
  45    -0.0029974844364686
  46    4.9460350239407e-14
  47      0.24872204932081
  48     0.097449152834027
  49     -0.19739870586978
  50     -0.18473109553032
  51    1.072514536944e-13
  52      0.12824207835472
  53     -0.29564851779723
  54    9.1295018664031e-14
  55     -0.37271484375488
 Sym= A
 Ene=              15
 Spin= Alpha
 Occup=    0.00000
   1      0.59191393416285
   2         1.29478361031
   3      -2.8154150404379
   4      -1.3559165424124
   5      0.24943999189767
   6    1.3247238833992e-11
   7     -0.59093688546682
   8     -0.13102136106833
   9    -2.4856288285086e-11
  10       1.8935646168263
  11     0.090278376809699
  12    2.4958142357478e-12
  13      0.12632758407246
  14      0.24633543015557
  15     0.070803830017171
  16    -2.2686780665991e-12
  17     -0.23659429047815
  18    -3.3350466371101e-13
  19     -0.57528427085063
  20      0.30351304574982
  21    5.4508306028422e-12
  22     -0.12835672674126
  23    5.7444602555724e-12
  24     0.071948564967775
  25      0.15577008824195
  26       2.2461707021363
  27       1.5720332842431
  28      0.24897912955269
  29    -3.0036021739044e-13
  30    -0.058686723053202
  31      0.78338485482265
  32    1.0303830850215e-11
  33        1.215344617043
  34      0.27291983655715
  35    -2.8833358977278e-13
  36      0.23378134888044
  37     -0.37110101217836
  38    -0.080539831107485
  39    -7.5385442484754e-13
  40      0.18684644566103
  41    -2.1933832785868e-12
  42      0.24619258493552
  43     0.039402366097417
  44    8.1856039440243e-12
  45      0.28073810195804
  46    9.8844123178624e-13
  47     -0.37822786160339
  48     -0.30285842946629
  49     -0.27651042407901
  50    -0.045106867888509
  51    4.4114506448425e-13
  52    0.0055331065826182
  53      0.16618211950654
  54    2.2548707567558e-12
  55     -0.23421513402497
 Sym= A
 Ene=              16
 Spin= Alpha
 Occup=    0.00000
   1    -0.00093503357169119
   2    -0.001356035492922
   3    0.0073693130538089
   4    0.0072075562516871
   5     0.001440096529951
   6     -0.22459995818397
   7    0.00024856012401475
   8    0.0026392838973687
   9     -0.28613111119005
  10    -0.0043831740030905
  11    -0.021712116651152
  12        2.024444019025
  13    0.0020408635243803
  14    -0.00038810607968814
  15    -0.0003441813881053
  16     0.013504912187557
  17    0.00040584987843519
  18    0.0031211122956055
  19    0.0010025762468539
  20    3.8609989901891e-05
  21      -0.0398325957915
  22    0.00023391244235207
  23    -0.0074717754681585
  24    -0.00033751805732942
  25    -0.00087057658964482
  26    -0.0045948796549431
  27    -0.0074555725759485
  28    -0.00053376813099342
  29       0.1013384630737
  30    0.00012950680590866
  31    -0.0017878002921887
  32     0.047920449765206
  33    -0.0038485429818668
  34     0.017763357078958
  35      -1.5753171583244
  36    -0.0092237877219047
  37    0.00087457573720169
  38    0.00045372738163157
  39    5.8980412832572e-05
  40    -0.0003068571475157
  41    0.0032335376906506
  42    -0.0010492146728351
  43    0.00046683448429779
  44    -0.062832012644042
  45    -0.00044781407000455
  46    -0.018152088396231
  47    -0.00078313134061402
  48    -0.0014285497672467
  49    -0.00078487628921678
  50    -0.0001615760003867
  51    0.00081209499228398
  52    -0.00038826088149554
  53    -0.0018820590318621
  54     0.001911948055217
  55    -0.0011211650193711
 Sym= A
 Ene=              17