[Molden Format]
[N_Atoms]
                    10
[Atoms] (AU)
C1          1      6           0.61142449     -2.12152797      0.00000000
C2          2      6          -1.87328988     -1.34697075      0.00000000
C3          3      6          -1.87307180      1.34725073      0.00000000
C4          4      6           0.61176706      2.12140667      0.00000000
N5          5      7           2.09821359     -0.00018019      0.00000000
H6          6      1           1.43781555     -3.99610323      0.00000000
H7          7      1          -3.51386973     -2.57752926      0.00000000
H8          8      1          -3.51345357      2.57807256      0.00000000
H9          9      1           1.43845985      3.99584866      0.00000000
H10        10      1           4.00030521     -0.00033301      0.00000000
[Charge] (Mulliken)
  1.882711465551168E-002
 -0.264177441918637     
 -0.264177577706749     
  1.882738584360055E-002
 -0.702159482212179     
  0.205584015007568     
  0.194125335023136     
  0.194125272259447     
  0.205584028194081     
  0.393441350853435     
[GTO] (AU)
   1
   s   6
  3.047524880E+03  1.834737132E-03
  4.573695180E+02  1.403732281E-02
  1.039486850E+02  6.884262227E-02
  2.921015530E+01  2.321844432E-01
  9.286662960E+00  4.679413484E-01
  3.163926960E+00  3.623119853E-01
   s   3
  7.868272350E+00 -1.193324198E-01
  1.881288540E+00 -1.608541517E-01
  5.442492580E-01  1.143456438E+00
   s   1
  1.687144782E-01  1.000000000E+00
   p   3
  7.868272350E+00  6.899906659E-02
  1.881288540E+00  3.164239610E-01
  5.442492580E-01  7.443082909E-01
   p   1
  1.687144782E-01  1.000000000E+00
   d   1
  8.000000000E-01  1.000000000E+00
 
   2
   s   6
  3.047524880E+03  1.834737132E-03
  4.573695180E+02  1.403732281E-02
  1.039486850E+02  6.884262227E-02
  2.921015530E+01  2.321844432E-01
  9.286662960E+00  4.679413484E-01
  3.163926960E+00  3.623119853E-01
   s   3
  7.868272350E+00 -1.193324198E-01
  1.881288540E+00 -1.608541517E-01
  5.442492580E-01  1.143456438E+00
   s   1
  1.687144782E-01  1.000000000E+00
   p   3
  7.868272350E+00  6.899906659E-02
  1.881288540E+00  3.164239610E-01
  5.442492580E-01  7.443082909E-01
   p   1
  1.687144782E-01  1.000000000E+00
   d   1
  8.000000000E-01  1.000000000E+00
 
   3
   s   6
  3.047524880E+03  1.834737132E-03
  4.573695180E+02  1.403732281E-02
  1.039486850E+02  6.884262227E-02
  2.921015530E+01  2.321844432E-01
  9.286662960E+00  4.679413484E-01
  3.163926960E+00  3.623119853E-01
   s   3
  7.868272350E+00 -1.193324198E-01
  1.881288540E+00 -1.608541517E-01
  5.442492580E-01  1.143456438E+00
   s   1
  1.687144782E-01  1.000000000E+00
   p   3
  7.868272350E+00  6.899906659E-02
  1.881288540E+00  3.164239610E-01
  5.442492580E-01  7.443082909E-01
   p   1
  1.687144782E-01  1.000000000E+00
   d   1
  8.000000000E-01  1.000000000E+00
 
   4
   s   6
  3.047524880E+03  1.834737132E-03
  4.573695180E+02  1.403732281E-02
  1.039486850E+02  6.884262227E-02
  2.921015530E+01  2.321844432E-01
  9.286662960E+00  4.679413484E-01
  3.163926960E+00  3.623119853E-01
   s   3
  7.868272350E+00 -1.193324198E-01
  1.881288540E+00 -1.608541517E-01
  5.442492580E-01  1.143456438E+00
   s   1
  1.687144782E-01  1.000000000E+00
   p   3
  7.868272350E+00  6.899906659E-02
  1.881288540E+00  3.164239610E-01
  5.442492580E-01  7.443082909E-01
   p   1
  1.687144782E-01  1.000000000E+00
   d   1
  8.000000000E-01  1.000000000E+00
 
   5
   s   6
  4.173511460E+03  1.834772160E-03
  6.274579110E+02  1.399462700E-02
  1.429020930E+02  6.858655181E-02
  4.023432930E+01  2.322408730E-01
  1.282021290E+01  4.690699481E-01
  4.390437010E+00  3.604551991E-01
   s   3
  1.162636186E+01 -1.149611817E-01
  2.716279807E+00 -1.691174786E-01
  7.722183966E-01  1.145851947E+00
   s   1
  2.120314975E-01  1.000000000E+00
   p   3
  1.162636186E+01  6.757974388E-02
  2.716279807E+00  3.239072959E-01
  7.722183966E-01  7.408951398E-01
   p   1
  2.120314975E-01  1.000000000E+00
   d   1
  8.000000000E-01  1.000000000E+00
 
   6
   s   3
  1.873113696E+01  3.349460434E-02
  2.825394365E+00  2.347269535E-01
  6.401216923E-01  8.137573261E-01
   s   1
  1.612777588E-01  1.000000000E+00
 
   7
   s   3
  1.873113696E+01  3.349460434E-02
  2.825394365E+00  2.347269535E-01
  6.401216923E-01  8.137573261E-01
   s   1
  1.612777588E-01  1.000000000E+00
 
   8
   s   3
  1.873113696E+01  3.349460434E-02
  2.825394365E+00  2.347269535E-01
  6.401216923E-01  8.137573261E-01
   s   1
  1.612777588E-01  1.000000000E+00
 
   9
   s   3
  1.873113696E+01  3.349460434E-02
  2.825394365E+00  2.347269535E-01
  6.401216923E-01  8.137573261E-01
   s   1
  1.612777588E-01  1.000000000E+00
 
  10
   s   3
  1.873113696E+01  3.349460434E-02
  2.825394365E+00  2.347269535E-01
  6.401216923E-01  8.137573261E-01
   s   1
  1.612777588E-01  1.000000000E+00
 
[MO]
Sym=     1a  
Ene=   -15.6050
Spin= Alpha
Occup=    2.00000
   1         0.00001923
   2         0.00017229
   3         0.00190573
   4         0.00017949
   5         0.00018724
   6        -0.00000000
   7        -0.00010815
   8         0.00119305
   9         0.00000000
  10        -0.00007152
  11        -0.00008810
  12        -0.00006812
  13        -0.00002034
  14         0.00000000
  15        -0.00000000
  16         0.00001000
  17        -0.00000069
  18        -0.00067488
  19        -0.00005100
  20         0.00005146
  21        -0.00000000
  22        -0.00046773
  23        -0.00020095
  24         0.00000000
  25         0.00002152
  26         0.00003732
  27         0.00000419
  28         0.00001480
  29         0.00000000
  30         0.00000000
  31         0.00001000
  32        -0.00000069
  33        -0.00067488
  34        -0.00005101
  35        -0.00005145
  36         0.00000000
  37        -0.00046770
  38         0.00020103
  39        -0.00000000
  40         0.00002152
  41         0.00003732
  42         0.00000419
  43        -0.00001479
  44         0.00000000
  45         0.00000000
  46         0.00001923
  47         0.00017229
  48         0.00190574
  49         0.00017946
  50        -0.00018727
  51         0.00000000
  52        -0.00010834
  53        -0.00119303
  54        -0.00000000
  55        -0.00007151
  56        -0.00008811
  57        -0.00006812
  58         0.00002033
  59        -0.00000000
  60        -0.00000000
  61         0.99496947
  62         0.02520822
  63        -0.00336692
  64        -0.00006977
  65         0.00000001
  66         0.00000000
  67         0.00113843
  68        -0.00000009
  69        -0.00000000
  70        -0.00337934
  71        -0.00345325
  72        -0.00340495
  73        -0.00000001
  74         0.00000000
  75         0.00000000
  76        -0.00000031
  77         0.00026164
  78        -0.00003119
  79        -0.00011972
  80        -0.00003119
  81        -0.00011972
  82        -0.00000031
  83         0.00026164
  84         0.00013477
  85         0.00014629
Sym=     2a  
Ene=   -11.2470
Spin= Alpha
Occup=    2.00000
   1        -0.70445009
   2        -0.01951632
   3         0.00929558
   4        -0.00040742
   5        -0.00058057
   6         0.00000000
   7        -0.00193620
   8         0.00195331
   9        -0.00000000
  10         0.00123662
  11         0.00118287
  12         0.00162348
  13         0.00001692
  14        -0.00000000
  15        -0.00000000
  16        -0.01045077
  17        -0.00008809
  18        -0.00546921
  19         0.00011372
  20         0.00003417
  21         0.00000000
  22        -0.00270451
  23        -0.00019315
  24         0.00000000
  25         0.00025260
  26         0.00030980
  27         0.00013274
  28         0.00009845
  29        -0.00000000
  30         0.00000000
  31         0.01043648
  32         0.00008790
  33         0.00546812
  34        -0.00011347
  35         0.00003431
  36         0.00000000
  37         0.00270444
  38        -0.00019437
  39        -0.00000000
  40        -0.00025222
  41        -0.00030970
  42        -0.00013266
  43         0.00009846
  44        -0.00000000
  45         0.00000000
  46         0.70348825
  47         0.01949039
  48        -0.00928950
  49         0.00040656
  50        -0.00057972
  51        -0.00000000
  52         0.00193727
  53         0.00195577
  54         0.00000000
  55        -0.00123506
  56        -0.00118171
  57        -0.00162107
  58         0.00001698
  59        -0.00000000
  60        -0.00000000
  61         0.00000023
  62        -0.00000045
  63         0.00000079
  64         0.00000004
  65         0.00003761
  66        -0.00000000
  67        -0.00000209
  68        -0.00014994
  69         0.00000000
  70         0.00000041
  71         0.00000046
  72        -0.00000020
  73         0.00037648
  74        -0.00000000
  75        -0.00000000
  76         0.00029710
  77        -0.00056557
  78        -0.00001080
  79        -0.00032671
  80         0.00001090
  81         0.00032697
  82        -0.00029697
  83         0.00056251
  84         0.00000023
  85         0.00000066
Sym=     3a  
Ene=   -11.2470
Spin= Alpha
Occup=    2.00000
   1         0.70343908
   2         0.01896564
   3        -0.00443934
   4         0.00055830
   5         0.00066818
   6         0.00000000
   7        -0.00055072
   8         0.00202965
   9         0.00000000
  10        -0.00113726
  11        -0.00085240
  12        -0.00176831
  13         0.00004035
  14        -0.00000000
  15        -0.00000000
  16         0.01045401
  17         0.00014412
  18         0.00080052
  19        -0.00018021
  20         0.00009439
  21        -0.00000000
  22         0.00002871
  23        -0.00057424
  24         0.00000000
  25        -0.00025565
  26        -0.00008599
  27        -0.00005572
  28         0.00001769
  29        -0.00000000
  30        -0.00000000
  31         0.01046829
  32         0.00014424
  33         0.00080799
  34        -0.00018038
  35        -0.00009431
  36        -0.00000000
  37         0.00003249
  38         0.00057397
  39        -0.00000000
  40        -0.00025600
  41        -0.00008641
  42        -0.00005590
  43        -0.00001752
  44        -0.00000000
  45         0.00000000
  46         0.70440098
  47         0.01899230
  48        -0.00445204
  49         0.00055875
  50        -0.00066906
  51        -0.00000000
  52        -0.00054840
  53        -0.00202689
  54         0.00000000
  55        -0.00113896
  56        -0.00085400
  57        -0.00177053
  58        -0.00004027
  59        -0.00000000
  60         0.00000000
  61        -0.00034122
  62         0.00065853
  63        -0.00116311
  64        -0.00005770
  65         0.00000003
  66         0.00000000
  67         0.00303441
  68        -0.00000035
  69         0.00000000
  70        -0.00052136
  71        -0.00075635
  72         0.00028794
  73         0.00000024
  74         0.00000000
  75         0.00000000
  76        -0.00010019
  77         0.00224488
  78        -0.00007867
  79        -0.00019230
  80        -0.00007865
  81        -0.00019186
  82        -0.00010059
  83         0.00224565
  84        -0.00033642
  85        -0.00096174
Sym=     4a  
Ene=   -11.2050
Spin= Alpha
Occup=    2.00000
   1        -0.01083239
   2        -0.00052415
   3         0.00440274
   4         0.00017622
   5        -0.00003140
   6         0.00000000
   7        -0.00139961
   8         0.00161194
   9        -0.00000000
  10        -0.00021913
  11        -0.00011455
  12        -0.00006538
  13         0.00001691
  14        -0.00000000
  15         0.00000000
  16         0.70383019
  17         0.01957774
  18        -0.00700418
  19         0.00012902
  20         0.00006144
  21         0.00000000
  22        -0.00140051
  23         0.00024366
  24         0.00000000
  25        -0.00133885
  26        -0.00159395
  27        -0.00172904
  28         0.00002537
  29         0.00000000
  30         0.00000000
  31         0.70376558
  32         0.01957593
  33        -0.00700291
  34         0.00012898
  35        -0.00006144
  36        -0.00000000
  37        -0.00140035
  38        -0.00024368
  39         0.00000000
  40        -0.00133877
  41        -0.00159387
  42        -0.00172889
  43        -0.00002541
  44         0.00000000
  45         0.00000000
  46        -0.01083140
  47        -0.00052411
  48         0.00440230
  49         0.00017622
  50         0.00003136
  51         0.00000000
  52        -0.00139974
  53        -0.00161158
  54        -0.00000000
  55        -0.00021910
  56        -0.00011452
  57        -0.00006538
  58        -0.00001688
  59         0.00000000
  60         0.00000000
  61         0.00009744
  62         0.00021041
  63        -0.00288156
  64        -0.00013499
  65         0.00000001
  66        -0.00000000
  67         0.00134535
  68        -0.00000009
  69         0.00000000
  70         0.00028171
  71         0.00018335
  72         0.00018520
  73        -0.00000001
  74         0.00000000
  75        -0.00000000
  76        -0.00001018
  77         0.00039879
  78        -0.00024991
  79         0.00101779
  80        -0.00024989
  81         0.00101771
  82        -0.00001018
  83         0.00039877
  84        -0.00010352
  85        -0.00016248
Sym=     5a  
Ene=   -11.2040
Spin= Alpha
Occup=    2.00000
   1         0.01086662
   2         0.00038723
   3        -0.00484581
   4        -0.00007609
   5         0.00014581
   6        -0.00000000
   7         0.00145819
   8        -0.00146009
   9         0.00000000
  10         0.00034658
  11         0.00028392
  12         0.00006695
  13        -0.00010502
  14         0.00000000
  15        -0.00000000
  16        -0.70409039
  17        -0.01969316
  18         0.01395056
  19        -0.00029375
  20        -0.00022605
  21        -0.00000000
  22         0.00224129
  23         0.00268170
  24         0.00000000
  25         0.00091937
  26         0.00084206
  27         0.00155053
  28        -0.00006816
  29        -0.00000000
  30         0.00000000
  31         0.70415497
  32         0.01969496
  33        -0.01395121
  34         0.00029372
  35        -0.00022610
  36        -0.00000000
  37        -0.00224098
  38         0.00268204
  39         0.00000000
  40        -0.00091951
  41        -0.00084219
  42        -0.00155069
  43        -0.00006815
  44         0.00000000
  45         0.00000000
  46        -0.01086762
  47        -0.00038728
  48         0.00484622
  49         0.00007613
  50         0.00014580
  51         0.00000000
  52        -0.00145855
  53        -0.00146000
  54        -0.00000000
  55        -0.00034663
  56        -0.00028390
  57        -0.00006696
  58        -0.00010501
  59         0.00000000
  60         0.00000000
  61         0.00000000
  62         0.00000001
  63        -0.00000013
  64        -0.00000001
  65         0.00000247
  66         0.00000000
  67         0.00000002
  68        -0.00047160
  69         0.00000000
  70         0.00000000
  71         0.00000002
  72         0.00000001
  73        -0.00006566
  74         0.00000000
  75         0.00000000
  76        -0.00000427
  77        -0.00018405
  78         0.00019586
  79        -0.00082304
  80        -0.00019589
  81         0.00082314
  82         0.00000427
  83         0.00018409
  84        -0.00000000
  85        -0.00000001
Sym=     6a  
Ene=    -1.2828
Spin= Alpha
Occup=    2.00000
   1        -0.08592270
   2         0.16370797
   3         0.03681965
   4         0.02912898
   5         0.09448413
   6        -0.00000000
   7         0.00630479
   8        -0.02611047
   9         0.00000000
  10         0.00426409
  11         0.01333338
  12        -0.00986856
  13         0.00893428
  14        -0.00000000
  15        -0.00000000
  16        -0.04512906
  17         0.08251445
  18         0.05889258
  19         0.04781107
  20         0.01891676
  21         0.00000000
  22         0.01457327
  23         0.00610862
  24         0.00000000
  25         0.00655578
  26         0.00205485
  27        -0.00462459
  28         0.00080990
  29         0.00000000
  30         0.00000000
  31        -0.04512910
  32         0.08251451
  33         0.05889273
  34         0.04780806
  35        -0.01892447
  36        -0.00000000
  37         0.01457235
  38        -0.00611102
  39        -0.00000000
  40         0.00655557
  41         0.00205507
  42        -0.00462459
  43        -0.00081074
  44        -0.00000000
  45        -0.00000000
  46        -0.08592281
  47         0.16370818
  48         0.03681961
  49         0.02911379
  50        -0.09448893
  51         0.00000000
  52         0.00630905
  53         0.02610955
  54         0.00000000
  55         0.00426159
  56         0.01333588
  57        -0.00986857
  58        -0.00893260
  59         0.00000000
  60        -0.00000000
  61        -0.17092120
  62         0.35350658
  63         0.36962249
  64        -0.05727617
  65         0.00000474
  66        -0.00000000
  67        -0.04077622
  68         0.00000333
  69        -0.00000000
  70         0.01790924
  71         0.00890113
  72        -0.01222564
  73        -0.00000084
  74        -0.00000000
  75         0.00000000
  76         0.02382250
  77        -0.00941905
  78         0.00993726
  79         0.00145958
  80         0.00993728
  81         0.00145961
  82         0.02382253
  83        -0.00941909
  84         0.08363910
  85         0.00428390
Sym=     7a  
Ene=    -1.0318
Spin= Alpha
Occup=    2.00000
   1         0.03642929
   2        -0.06984144
   3        -0.05053738
   4         0.13193576
   5         0.00189538
   6         0.00000000
   7         0.01482273
   8        -0.00006995
   9         0.00000000
  10        -0.00551945
  11         0.00251023
  12         0.00240538
  13         0.01526525
  14        -0.00000000
  15        -0.00000000
  16         0.12821653
  17        -0.24309718
  18        -0.18068511
  19        -0.03909855
  20        -0.06367466
  21        -0.00000000
  22        -0.00253752
  23        -0.00591841
  24         0.00000000
  25        -0.00585896
  26        -0.01287633
  27         0.01083456
  28        -0.00289581
  29        -0.00000000
  30        -0.00000000
  31         0.12821655
  32        -0.24309721
  33        -0.18068508
  34        -0.03908823
  35         0.06368095
  36        -0.00000000
  37        -0.00253653
  38         0.00591880
  39        -0.00000000
  40        -0.00585816
  41        -0.01287712
  42         0.01083456
  43         0.00289449
  44         0.00000000
  45        -0.00000000
  46         0.03642924
  47        -0.06984133
  48        -0.05053735
  49         0.13193559
  50        -0.00191673
  51         0.00000000
  52         0.01482276
  53         0.00006758
  54        -0.00000000
  55        -0.00552371
  56         0.00251450
  57         0.00240538
  58        -0.01526376
  59        -0.00000000
  60         0.00000000
  61        -0.09615616
  62         0.20812859
  63         0.23945883
  64         0.10335128
  65        -0.00000822
  66        -0.00000000
  67         0.05883137
  68        -0.00000470
  69         0.00000000
  70         0.00932675
  71         0.00190558
  72        -0.00346028
  73        -0.00000069
  74         0.00000000
  75         0.00000000
  76        -0.00722025
  77         0.00085823
  78        -0.05941002
  79        -0.01018197
  80        -0.05941006
  81        -0.01018196
  82        -0.00722023
  83         0.00085824
  84         0.11266399
  85         0.00838975
Sym=     8a  
Ene=    -0.9683
Spin= Alpha
Occup=    2.00000
   1         0.13366000
   2        -0.26449423
   3        -0.18945867
   4         0.01574189
   5        -0.01436329
   6         0.00000000
   7         0.00816034
   8         0.01973797
   9        -0.00000000
  10        -0.01114965
  11        -0.00626272
  12         0.01115557
  13         0.00208000
  14        -0.00000000
  15        -0.00000000
  16         0.07030991
  17        -0.13500229
  18        -0.11651640
  19        -0.07481437
  20         0.07345927
  21         0.00000000
  22        -0.00506404
  23         0.00525550
  24         0.00000000
  25        -0.01324980
  26         0.00581428
  27         0.00500503
  28         0.00334267
  29        -0.00000000
  30         0.00000000
  31        -0.07030993
  32         0.13500231
  33         0.11651638
  34         0.07482625
  35         0.07344723
  36         0.00000000
  37         0.00506487
  38         0.00525468
  39         0.00000000
  40         0.01325074
  41        -0.00581523
  42        -0.00500503
  43         0.00333912
  44        -0.00000000
  45        -0.00000000
  46        -0.13366000
  47         0.26449421
  48         0.18945865
  49        -0.01574429
  50        -0.01436068
  51         0.00000000
  52        -0.00815717
  53         0.01973929
  54         0.00000000
  55         0.01115022
  56         0.00626213
  57        -0.01115557
  58         0.00207910
  59         0.00000000
  60         0.00000000
  61         0.00000007
  62        -0.00000014
  63        -0.00000020
  64         0.00001699
  65         0.21143837
  66         0.00000000
  67         0.00000792
  68         0.09822542
  69         0.00000000
  70        -0.00000230
  71         0.00000228
  72         0.00000000
  73        -0.01635110
  74        -0.00000000
  75         0.00000000
  76        -0.08967543
  77        -0.02076565
  78        -0.04297149
  79        -0.00968879
  80         0.04297149
  81         0.00968878
  82         0.08967544
  83         0.02076565
  84        -0.00000006
  85        -0.00000003
Sym=     9a  
Ene=    -0.7843
Spin= Alpha
Occup=    2.00000
   1         0.07209574
   2        -0.14474848
   3        -0.09577027
   4        -0.00275114
   5        -0.01712064
   6         0.00000000
   7        -0.01788945
   8         0.03807438
   9         0.00000000
  10         0.00604976
  11        -0.01486540
  12         0.00679044
  13         0.00344873
  14         0.00000000
  15         0.00000000
  16        -0.06746825
  17         0.13357487
  18         0.11745830
  19        -0.15091488
  20         0.07111876
  21        -0.00000000
  22        -0.05954036
  23         0.00847444
  24        -0.00000000
  25        -0.00267901
  26         0.01352334
  27        -0.00435376
  28         0.00669373
  29         0.00000000
  30         0.00000000
  31        -0.06746820
  32         0.13357476
  33         0.11745830
  34        -0.15092654
  35        -0.07109441
  36         0.00000000
  37        -0.05954170
  38        -0.00846487
  39         0.00000000
  40        -0.00268087
  41         0.01352520
  42        -0.00435376
  43        -0.00669070
  44         0.00000000
  45        -0.00000000
  46         0.07209572
  47        -0.14474843
  48        -0.09577025
  49        -0.00274815
  50         0.01712116
  51        -0.00000000
  52        -0.01789552
  53        -0.03807146
  54        -0.00000000
  55         0.00604880
  56        -0.01486443
  57         0.00679043
  58        -0.00345264
  59        -0.00000000
  60         0.00000000
  61        -0.03771572
  62         0.08332811
  63         0.09107089
  64         0.31945807
  65        -0.00002565
  66        -0.00000000
  67         0.20302323
  68        -0.00001628
  69        -0.00000000
  70         0.02165677
  71        -0.01103316
  72        -0.00183047
  73        -0.00000303
  74         0.00000000
  75        -0.00000000
  76        -0.05777000
  77        -0.01170034
  78         0.09579930
  79         0.04139817
  80         0.09579937
  81         0.04139821
  82        -0.05776991
  83        -0.01170029
  84         0.20260371
  85         0.05980011
Sym=    10a  
Ene=    -0.7580
Spin= Alpha
Occup=    2.00000
   1         0.03003768
   2        -0.06335755
   3         0.01050310
   4        -0.22082610
   5        -0.01844802
   6        -0.00000000
   7        -0.06443180
   8         0.04188947
   9         0.00000000
  10         0.00458548
  11        -0.01305395
  12         0.00457845
  13        -0.00958600
  14         0.00000000
  15         0.00000000
  16        -0.09649037
  17         0.19207994
  18         0.12305803
  19        -0.01473308
  20        -0.12222629
  21        -0.00000000
  22        -0.05929544
  23        -0.07998241
  24        -0.00000000
  25         0.01312848
  26        -0.00263033
  27        -0.00634721
  28         0.00698097
  29        -0.00000000
  30        -0.00000000
  31         0.09649037
  32        -0.19207993
  33        -0.12305794
  34         0.01471342
  35        -0.12222862
  36        -0.00000000
  37         0.05928256
  38        -0.07999194
  39        -0.00000000
  40        -0.01312654
  41         0.00262839
  42         0.00634721
  43         0.00698391
  44         0.00000000
  45         0.00000000
  46        -0.03003772
  47         0.06335763
  48        -0.01050310
  49         0.22082314
  50        -0.01848369
  51        -0.00000000
  52         0.06443855
  53         0.04187909
  54        -0.00000000
  55        -0.00458817
  56         0.01305663
  57        -0.00457845
  58        -0.00958271
  59         0.00000000
  60         0.00000000
  61         0.00000004
  62        -0.00000009
  63        -0.00000013
  64         0.00002158
  65         0.26963616
  66         0.00000000
  67         0.00001266
  68         0.15785186
  69        -0.00000000
  70        -0.00000116
  71         0.00000115
  72        -0.00000000
  73        -0.00815152
  74        -0.00000000
  75         0.00000000
  76        -0.06240722
  77        -0.02304987
  78         0.12640188
  79         0.04222192
  80        -0.12640188
  81        -0.04222191
  82         0.06240722
  83         0.02304986
  84        -0.00000010
  85        -0.00000005
Sym=    11a  
Ene=    -0.7270
Spin= Alpha
Occup=    2.00000
   1        -0.06184306
   2         0.12250082
   3         0.16193869
   4         0.01465124
   5        -0.24546495
   6        -0.00000000
   7         0.02551843
   8        -0.07986710
   9         0.00000000
  10         0.00536337
  11         0.00142171
  12        -0.00236474
  13        -0.01521776
  14         0.00000000
  15         0.00000000
  16         0.00138653
  17        -0.00382684
  18         0.01461196
  19        -0.02094779
  20        -0.13546882
  21        -0.00000000
  22        -0.00160077
  23        -0.03875596
  24         0.00000000
  25         0.00300070
  26        -0.00311709
  27         0.00105061
  28        -0.00406273
  29         0.00000000
  30         0.00000000
  31         0.00138655
  32        -0.00382687
  33         0.01461191
  34        -0.02092592
  35         0.13547220
  36         0.00000000
  37        -0.00159449
  38         0.03875622
  39        -0.00000000
  40         0.00300182
  41        -0.00311823
  42         0.00105062
  43         0.00406160
  44         0.00000000
  45        -0.00000000
  46        -0.06184304
  47         0.12250077
  48         0.16193867
  49         0.01469082
  50         0.24546282
  51         0.00000000
  52         0.02553134
  53         0.07986303
  54         0.00000000
  55         0.00536762
  56         0.00141748
  57        -0.00236474
  58         0.01521702
  59         0.00000000
  60        -0.00000000
  61         0.03175275
  62        -0.06753253
  63        -0.10859175
  64         0.19369317
  65        -0.00001567
  66         0.00000000
  67         0.10961789
  68        -0.00000886
  69         0.00000000
  70        -0.00005595
  71         0.00523704
  72         0.00271270
  73         0.00000051
  74        -0.00000000
  75         0.00000000
  76         0.17856164
  77         0.09683671
  78         0.04724357
  79         0.03047474
  80         0.04724353
  81         0.03047473
  82         0.17856175
  83         0.09683678
  84         0.07783949
  85         0.03042324
Sym=    12a  
Ene=    -0.5837
Spin= Alpha
Occup=    2.00000
   1        -0.00510368
   2         0.01197236
   3         0.01129092
   4        -0.20140851
   5        -0.02242882
   6        -0.00000000
   7        -0.07126975
   8        -0.00272680
   9        -0.00000000
  10         0.01048553
  11        -0.01522530
  12         0.00212182
  13        -0.01618121
  14         0.00000000
  15        -0.00000000
  16        -0.00880286
  17         0.01857848
  18        -0.00310016
  19         0.26604638
  20         0.07876562
  21         0.00000000
  22         0.11260277
  23         0.04163270
  24         0.00000000
  25        -0.00351005
  26        -0.00115078
  27        -0.00032986
  28        -0.00849701
  29         0.00000000
  30        -0.00000000
  31        -0.00880263
  32         0.01857803
  33        -0.00310052
  34         0.26603410
  35        -0.07880874
  36        -0.00000000
  37         0.11259636
  38        -0.04165102
  39        -0.00000000
  40        -0.00350777
  41        -0.00115311
  42        -0.00032985
  43         0.00849754
  44        -0.00000000
  45        -0.00000000
  46        -0.00510380
  47         0.01197253
  48         0.01129152
  49        -0.20140530
  50         0.02246376
  51         0.00000000
  52        -0.07126913
  53         0.00273932
  54         0.00000000
  55         0.01049000
  56        -0.01522972
  57         0.00212183
  58         0.01617665
  59         0.00000000
  60         0.00000000
  61         0.02479518
  62        -0.06258984
  63        -0.08010010
  64         0.29126519
  65        -0.00002484
  66        -0.00000000
  67         0.18159397
  68        -0.00001550
  69         0.00000000
  70         0.02639641
  71        -0.01605649
  72        -0.00249449
  73        -0.00000388
  74        -0.00000000
  75        -0.00000000
  76        -0.02891378
  77        -0.02176040
  78        -0.15028338
  79        -0.10847283
  80        -0.15028398
  81        -0.10847320
  82        -0.02891227
  83        -0.02175934