[Molden Format]
[N_Atoms]
                    10
[Atoms] (AU)
C1          1      6           0.66097598     -2.18452239      0.00000000
C2          2      6          -1.93905471     -1.35890780     -0.00000000
C3          3      6          -1.93882831      1.35919251      0.00000000
C4          4      6           0.66133071      2.18439851     -0.00000000
N5          5      7           2.12838327     -0.00018187     -0.00000000
H6          6      1           1.48247673     -4.07367893      0.00000000
H7          7      1          -3.60475083     -2.58248907     -0.00000000
H8          8      1          -3.60432758      2.58304207      0.00000000
H9          9      1           1.48313594      4.07342264     -0.00000000
H10        10      1           4.09495957     -0.00034146     -0.00000000
[Charge] (Mulliken)
  0.000000000000000E+000
  0.000000000000000E+000
  0.000000000000000E+000
  0.000000000000000E+000
  0.000000000000000E+000
  0.000000000000000E+000
  0.000000000000000E+000
  0.000000000000000E+000
  0.000000000000000E+000
  0.000000000000000E+000
[GTO] (AU)
   1
   s   6
  3.047524880E+03  1.834737132E-03
  4.573695180E+02  1.403732281E-02
  1.039486850E+02  6.884262227E-02
  2.921015530E+01  2.321844432E-01
  9.286662960E+00  4.679413484E-01
  3.163926960E+00  3.623119853E-01
   s   3
  7.868272350E+00 -1.193324198E-01
  1.881288540E+00 -1.608541517E-01
  5.442492580E-01  1.143456438E+00
   s   1
  1.687144782E-01  1.000000000E+00
   p   3
  7.868272350E+00  6.899906659E-02
  1.881288540E+00  3.164239610E-01
  5.442492580E-01  7.443082909E-01
   p   1
  1.687144782E-01  1.000000000E+00
   d   1
  8.000000000E-01  1.000000000E+00
 
   2
   s   6
  3.047524880E+03  1.834737132E-03
  4.573695180E+02  1.403732281E-02
  1.039486850E+02  6.884262227E-02
  2.921015530E+01  2.321844432E-01
  9.286662960E+00  4.679413484E-01
  3.163926960E+00  3.623119853E-01
   s   3
  7.868272350E+00 -1.193324198E-01
  1.881288540E+00 -1.608541517E-01
  5.442492580E-01  1.143456438E+00
   s   1
  1.687144782E-01  1.000000000E+00
   p   3
  7.868272350E+00  6.899906659E-02
  1.881288540E+00  3.164239610E-01
  5.442492580E-01  7.443082909E-01
   p   1
  1.687144782E-01  1.000000000E+00
   d   1
  8.000000000E-01  1.000000000E+00
 
   3
   s   6
  3.047524880E+03  1.834737132E-03
  4.573695180E+02  1.403732281E-02
  1.039486850E+02  6.884262227E-02
  2.921015530E+01  2.321844432E-01
  9.286662960E+00  4.679413484E-01
  3.163926960E+00  3.623119853E-01
   s   3
  7.868272350E+00 -1.193324198E-01
  1.881288540E+00 -1.608541517E-01
  5.442492580E-01  1.143456438E+00
   s   1
  1.687144782E-01  1.000000000E+00
   p   3
  7.868272350E+00  6.899906659E-02
  1.881288540E+00  3.164239610E-01
  5.442492580E-01  7.443082909E-01
   p   1
  1.687144782E-01  1.000000000E+00
   d   1
  8.000000000E-01  1.000000000E+00
 
   4
   s   6
  3.047524880E+03  1.834737132E-03
  4.573695180E+02  1.403732281E-02
  1.039486850E+02  6.884262227E-02
  2.921015530E+01  2.321844432E-01
  9.286662960E+00  4.679413484E-01
  3.163926960E+00  3.623119853E-01
   s   3
  7.868272350E+00 -1.193324198E-01
  1.881288540E+00 -1.608541517E-01
  5.442492580E-01  1.143456438E+00
   s   1
  1.687144782E-01  1.000000000E+00
   p   3
  7.868272350E+00  6.899906659E-02
  1.881288540E+00  3.164239610E-01
  5.442492580E-01  7.443082909E-01
   p   1
  1.687144782E-01  1.000000000E+00
   d   1
  8.000000000E-01  1.000000000E+00
 
   5
   s   6
  4.173511460E+03  1.834772160E-03
  6.274579110E+02  1.399462700E-02
  1.429020930E+02  6.858655181E-02
  4.023432930E+01  2.322408730E-01
  1.282021290E+01  4.690699481E-01
  4.390437010E+00  3.604551991E-01
   s   3
  1.162636186E+01 -1.149611817E-01
  2.716279807E+00 -1.691174786E-01
  7.722183966E-01  1.145851947E+00
   s   1
  2.120314975E-01  1.000000000E+00
   p   3
  1.162636186E+01  6.757974388E-02
  2.716279807E+00  3.239072959E-01
  7.722183966E-01  7.408951398E-01
   p   1
  2.120314975E-01  1.000000000E+00
   d   1
  8.000000000E-01  1.000000000E+00
 
   6
   s   3
  1.873113696E+01  3.349460434E-02
  2.825394365E+00  2.347269535E-01
  6.401216923E-01  8.137573261E-01
   s   1
  1.612777588E-01  1.000000000E+00
 
   7
   s   3
  1.873113696E+01  3.349460434E-02
  2.825394365E+00  2.347269535E-01
  6.401216923E-01  8.137573261E-01
   s   1
  1.612777588E-01  1.000000000E+00
 
   8
   s   3
  1.873113696E+01  3.349460434E-02
  2.825394365E+00  2.347269535E-01
  6.401216923E-01  8.137573261E-01
   s   1
  1.612777588E-01  1.000000000E+00
 
   9
   s   3
  1.873113696E+01  3.349460434E-02
  2.825394365E+00  2.347269535E-01
  6.401216923E-01  8.137573261E-01
   s   1
  1.612777588E-01  1.000000000E+00
 
  10
   s   3
  1.873113696E+01  3.349460434E-02
  2.825394365E+00  2.347269535E-01
  6.401216923E-01  8.137573261E-01
   s   1
  1.612777588E-01  1.000000000E+00
 
[MO]
Sym=     1a  
Ene=     0.0000
Spin= Alpha
Occup=    2.00001
   1         0.69769520
   2         0.01398020
   3        -0.00840079
   4        -0.00001880
   5         0.00353859
   6         0.00000000
   7        -0.00089345
   8         0.00263468
   9        -0.00000000
  10        -0.00107763
  11        -0.00086387
  12        -0.00155219
  13         0.00027597
  14         0.00000000
  15         0.00000000
  16         0.04180887
  17         0.00028275
  18         0.00038320
  19        -0.00137072
  20         0.00069328
  21        -0.00000000
  22        -0.00023169
  23        -0.00041287
  24         0.00000000
  25        -0.00060197
  26        -0.00016909
  27        -0.00012780
  28         0.00019840
  29        -0.00000000
  30         0.00000000
  31         0.04179406
  32         0.00028219
  33         0.00038516
  34        -0.00137147
  35        -0.00069314
  36         0.00000000
  37        -0.00023104
  38         0.00041299
  39         0.00000000
  40        -0.00060220
  41        -0.00016912
  42        -0.00012780
  43        -0.00019837
  44         0.00000000
  45         0.00000000
  46         0.69795737
  47         0.01398560
  48        -0.00840536
  49        -0.00001946
  50        -0.00353978
  51        -0.00000000
  52        -0.00089323
  53        -0.00263414
  54         0.00000000
  55        -0.00107812
  56        -0.00086423
  57        -0.00155269
  58        -0.00027598
  59        -0.00000000
  60         0.00000000
  61        -0.13970627
  62        -0.00242656
  63         0.00124662
  64         0.00112031
  65        -0.00000033
  66        -0.00000000
  67         0.00315213
  68        -0.00000033
  69         0.00000000
  70         0.00000454
  71        -0.00062586
  72         0.00075676
  73         0.00000006
  74         0.00000000
  75         0.00000000
  76        -0.00280227
  77         0.00127826
  78        -0.00000688
  79        -0.00004598
  80        -0.00000668
  81        -0.00004589
  82        -0.00280337
  83         0.00127813
  84         0.00037246
  85        -0.00078492
Sym=     2a  
Ene=     0.0000
Spin= Alpha
Occup=    2.00001
   1        -0.70306369
   2        -0.01452169
   3         0.01156459
   4        -0.00004582
   5        -0.00313341
   6        -0.00000000
   7        -0.00163411
   8         0.00086721
   9         0.00000000
  10         0.00121892
  11         0.00121913
  12         0.00139256
  13        -0.00020010
  14         0.00000000
  15        -0.00000000
  16        -0.06763485
  17        -0.00082700
  18        -0.00259226
  19         0.00147144
  20        -0.00064907
  21         0.00000000
  22        -0.00127016
  23         0.00058821
  24        -0.00000000
  25         0.00064577
  26         0.00029620
  27         0.00020026
  28        -0.00012942
  29        -0.00000000
  30        -0.00000000
  31         0.06758186
  32         0.00082614
  33         0.00259263
  34        -0.00147112
  35        -0.00064853
  36         0.00000000
  37         0.00127037
  38         0.00058790
  39        -0.00000000
  40        -0.00064550
  41        -0.00029601
  42        -0.00020013
  43        -0.00012929
  44         0.00000000
  45         0.00000000
  46         0.70281019
  47         0.01451660
  48        -0.01156172
  49         0.00004520
  50        -0.00313214
  51        -0.00000000
  52         0.00163459
  53         0.00086795
  54         0.00000000
  55        -0.00121855
  56        -0.00121876
  57        -0.00139198
  58        -0.00019998
  59         0.00000000
  60         0.00000000
  61         0.00002932
  62         0.00000050
  63        -0.00000021
  64        -0.00000028
  65        -0.00118909
  66         0.00000000
  67        -0.00000061
  68        -0.00046109
  69        -0.00000000
  70         0.00000007
  71        -0.00000000
  72        -0.00000015
  73         0.00063717
  74         0.00000000
  75        -0.00000000
  76         0.00283976
  77         0.00029700
  78        -0.00011496
  79        -0.00021367
  80         0.00011509
  81         0.00021367
  82        -0.00283877
  83        -0.00029749
  84        -0.00000007
  85         0.00000015
Sym=     3a  
Ene=     0.0000
Spin= Alpha
Occup=    2.00000
   1         0.06732926
   2         0.00192241
   3        -0.00515601
   4        -0.00134768
   5         0.00092391
   6        -0.00000000
   7         0.00108176
   8        -0.00083732
   9         0.00000000
  10         0.00051900
  11         0.00010540
  12        -0.00006998
  13        -0.00016288
  14         0.00000000
  15        -0.00000000
  16        -0.70278994
  17        -0.01558920
  18         0.01698117
  19        -0.00211159
  20        -0.00271725
  21         0.00000000
  22         0.00150002
  23         0.00192326
  24        -0.00000000
  25         0.00100734
  26         0.00049123
  27         0.00139112
  28         0.00011803
  29        -0.00000000
  30        -0.00000000
  31         0.70255045
  32         0.01558424
  33        -0.01697772
  34         0.00211039
  35        -0.00271735
  36         0.00000000
  37        -0.00149940
  38         0.00192374
  39        -0.00000000
  40        -0.00100688
  41        -0.00049069
  42        -0.00139062
  43         0.00011809
  44        -0.00000000
  45         0.00000000
  46        -0.06727534
  47        -0.00192106
  48         0.00515408
  49         0.00134731
  50         0.00092332
  51        -0.00000000
  52        -0.00108161
  53        -0.00083694
  54         0.00000000
  55        -0.00051894
  56        -0.00010541
  57         0.00006988
  58        -0.00016278
  59         0.00000000
  60         0.00000000
  61        -0.00000310
  62        -0.00000008
  63         0.00000042
  64         0.00000011
  65         0.00006700
  66         0.00000000
  67        -0.00000004
  68        -0.00047011
  69         0.00000000
  70        -0.00000005
  71        -0.00000005
  72        -0.00000000
  73        -0.00006081
  74         0.00000000
  75         0.00000000
  76        -0.00060279
  77        -0.00021887
  78         0.00269901
  79         0.00005073
  80        -0.00269815
  81        -0.00005082
  82         0.00060251
  83         0.00021882
  84         0.00000005
  85        -0.00000001
Sym=     4a  
Ene=     0.0000
Spin= Alpha
Occup=    2.00000
   1        -0.04258015
   2        -0.00154705
   3         0.00429329
   4         0.00142781
   5        -0.00047831
   6         0.00000000
   7        -0.00096415
   8         0.00119156
   9        -0.00000000
  10        -0.00047969
  11        -0.00000003
  12         0.00000016
  13         0.00011587
  14        -0.00000000
  15         0.00000000
  16         0.70456930
  17         0.01483877
  18        -0.00985077
  19         0.00196263
  20         0.00076176
  21        -0.00000000
  22        -0.00091430
  23         0.00056270
  24         0.00000000
  25        -0.00133225
  26        -0.00168889
  27        -0.00153696
  28        -0.00007681
  29         0.00000000
  30         0.00000000
  31         0.70481398
  32         0.01484427
  33        -0.00985640
  34         0.00196315
  35        -0.00076301
  36         0.00000000
  37        -0.00091487
  38        -0.00056185
  39        -0.00000000
  40        -0.00133261
  41        -0.00168910
  42        -0.00153746
  43         0.00007678
  44        -0.00000000
  45        -0.00000000
  46        -0.04256566
  47        -0.00154690
  48         0.00429446
  49         0.00142833
  50         0.00047822
  51        -0.00000000
  52        -0.00096462
  53        -0.00119166
  54         0.00000000
  55        -0.00047997
  56        -0.00000010
  57         0.00000011
  58        -0.00011585
  59        -0.00000000
  60         0.00000000
  61        -0.00628385
  62         0.00005256
  63        -0.00233228
  64        -0.00043487
  65         0.00000002
  66        -0.00000000
  67         0.00055517
  68        -0.00000014
  69        -0.00000000
  70         0.00025399
  71         0.00024599
  72         0.00013943
  73         0.00000000
  74         0.00000000
  75        -0.00000000
  76         0.00035605
  77         0.00041443
  78        -0.00239814
  79         0.00024983
  80        -0.00239902
  81         0.00024982
  82         0.00035610
  83         0.00041449
  84        -0.00023883
  85        -0.00009115
Sym=     5a  
Ene=     0.0000
Spin= Alpha
Occup=    2.00000
   1         0.09831478
   2         0.00231989
   3         0.00124805
   4        -0.00008062
   5         0.00027933
   6         0.00000000
   7        -0.00022250
   8         0.00160602
   9        -0.00000000
  10        -0.00027370
  11        -0.00024079
  12        -0.00029575
  13        -0.00009417
  14        -0.00000000
  15        -0.00000000
  16         0.01036764
  17         0.00028338
  18        -0.00064120
  19        -0.00003946
  20         0.00023870
  21         0.00000000
  22        -0.00042465
  23        -0.00016023
  24         0.00000000
  25        -0.00008220
  26         0.00000694
  27        -0.00003565
  28         0.00003866
  29         0.00000000
  30         0.00000000
  31         0.01036751
  32         0.00028338
  33        -0.00064123
  34        -0.00003948
  35        -0.00023869
  36         0.00000000
  37        -0.00042463
  38         0.00016028
  39        -0.00000000
  40        -0.00008220
  41         0.00000696
  42        -0.00003565
  43        -0.00003864
  44         0.00000000
  45        -0.00000000
  46         0.09830983
  47         0.00231973
  48         0.00124811
  49        -0.00008070
  50        -0.00027925
  51         0.00000000
  52        -0.00022280
  53        -0.00160598
  54         0.00000000
  55        -0.00027366
  56        -0.00024080
  57        -0.00029574
  58         0.00009418
  59        -0.00000000
  60        -0.00000000
  61         0.98613706
  62         0.02262574
  63        -0.00573041
  64        -0.00141625
  65         0.00000004
  66         0.00000000
  67         0.00122459
  68        -0.00000011
  69        -0.00000000
  70        -0.00335708
  71        -0.00335581
  72        -0.00329384
  73         0.00000000
  74         0.00000000
  75        -0.00000000
  76        -0.00014714
  77         0.00056485
  78        -0.00009984
  79        -0.00012518
  80        -0.00009984
  81        -0.00012518
  82        -0.00014711
  83         0.00056486
  84        -0.00092053
  85        -0.00012702
Sym=     6a  
Ene=     0.0000
Spin= Alpha
Occup=    1.98463
   1        -0.09221525
   2         0.20135953
   3         0.08345334
   4         0.00926294
   5         0.01316940
   6        -0.00000000
   7         0.01036259
   8        -0.04914646
   9        -0.00000000
  10         0.00758900
  11         0.01319867
  12        -0.01000609
  13         0.00060559
  14         0.00000000
  15        -0.00000000
  16        -0.06938236
  17         0.14880456
  18         0.10662420
  19         0.03094675
  20         0.00751232
  21         0.00000000
  22         0.01073129
  23         0.00191985
  24         0.00000000
  25         0.00915713
  26         0.00630226
  27        -0.00765138
  28         0.00070989
  29         0.00000000
  30         0.00000000
  31        -0.06938242
  32         0.14880397
  33         0.10662489
  34         0.03094482
  35        -0.00751733
  36        -0.00000000
  37         0.01073109
  38        -0.00192146
  39        -0.00000000
  40         0.00915691
  41         0.00630253
  42        -0.00765135
  43        -0.00071044
  44        -0.00000000
  45         0.00000000
  46        -0.09221486
  47         0.20135884
  48         0.08345231
  49         0.00926136
  50        -0.01317204
  51         0.00000000
  52         0.01037089
  53         0.04914439
  54        -0.00000000
  55         0.00758876
  56         0.01319881
  57        -0.01000606
  58        -0.00060459
  59        -0.00000000
  60        -0.00000000
  61        -0.13163905
  62         0.28337260
  63         0.28402455
  64        -0.00216577
  65         0.00000096
  66        -0.00000000
  67        -0.01581234
  68         0.00000156
  69        -0.00000000
  70         0.01590947
  71         0.01030122
  72        -0.01121046
  73        -0.00000055
  74         0.00000000
  75        -0.00000000
  76         0.06855390
  77         0.00148432
  78         0.04013282
  79         0.00765174
  80         0.04013304
  81         0.00765191
  82         0.06855328
  83         0.00148422
  84         0.07873928
  85         0.00090865
Sym=     7a  
Ene=     0.0000
Spin= Alpha
Occup=    1.97973
   1        -0.01010411
   2         0.02232991
   3         0.00995169
   4         0.08259465
   5        -0.00625080
   6        -0.00000000
   7         0.00600907
   8        -0.03023891
   9        -0.00000000
  10        -0.00439897
  11         0.00645800
  12        -0.00086598
  13         0.00685772
  14        -0.00000000
  15        -0.00000000
  16         0.10831191
  17        -0.24242509
  18        -0.19251945
  19         0.10329636
  20         0.01805514
  21        -0.00000000
  22         0.05633615
  23         0.04251505
  24         0.00000000
  25        -0.00816897
  26        -0.01346305
  27         0.01027592
  28        -0.00810740
  29        -0.00000000
  30        -0.00000000
  31         0.10832054
  32        -0.24244344
  33        -0.19253800
  34         0.10329557
  35        -0.01808478
  36        -0.00000000
  37         0.05633432
  38        -0.04252607
  39        -0.00000000
  40        -0.00816855
  41        -0.01346526
  42         0.01027664
  43         0.00810655
  44         0.00000000
  45        -0.00000000
  46        -0.01008831
  47         0.02229383
  48         0.00992304
  49         0.08259141
  50         0.00621948
  51        -0.00000000
  52         0.00601015
  53         0.03022620
  54        -0.00000000
  55        -0.00440202
  56         0.00645797
  57        -0.00086460
  58        -0.00685704
  59         0.00000000
  60         0.00000000
  61        -0.09782112
  62         0.22130669
  63         0.23286780
  64         0.10724648
  65        -0.00001544
  66        -0.00000000
  67         0.06349926
  68        -0.00000694
  69        -0.00000000
  70         0.01481727
  71         0.00455649
  72        -0.00615867
  73        -0.00000039
  74         0.00000000
  75        -0.00000000
  76         0.02591147
  77         0.00237921
  78        -0.13327478
  79        -0.02200606
  80        -0.13328638
  81        -0.02200853
  82         0.02588934
  83         0.00237528
  84         0.10862454
  85        -0.00051910
Sym=     8a  
Ene=     0.0000
Spin= Alpha
Occup=    1.97947
   1         0.10585385
   2        -0.24314172
   3        -0.19138038
   4        -0.03401143
   5         0.12444848
   6         0.00000000
   7        -0.02844286
   8         0.07975640
   9         0.00000000
  10        -0.00800394
  11        -0.01392119
  12         0.00965696
  13         0.00878911
  14        -0.00000000
  15         0.00000000
  16         0.05789795
  17        -0.12946235
  18        -0.12409305
  19         0.01761008
  20         0.08697596
  21         0.00000000
  22         0.03273578
  23         0.01404720
  24         0.00000000
  25        -0.01162312
  26        -0.00001556
  27         0.00531947
  28        -0.00204144
  29        -0.00000000
  30        -0.00000000
  31        -0.05788240
  32         0.12942690
  33         0.12406550
  34        -0.01758055
  35         0.08697542
  36         0.00000000
  37        -0.03272533
  38         0.01404636
  39         0.00000000
  40         0.01162128
  41         0.00001423
  42        -0.00531795
  43        -0.00204242
  44        -0.00000000
  45         0.00000000
  46        -0.10585538
  47         0.24314503
  48         0.19138199
  49         0.03404360
  50         0.12444243
  51         0.00000000
  52         0.02845683
  53         0.07975535
  54         0.00000000
  55         0.00800579
  56         0.01391961
  57        -0.00965708
  58         0.00878933
  59        -0.00000000
  60        -0.00000000
  61        -0.00000734
  62         0.00001679
  63         0.00001681
  64         0.00001575
  65         0.09724525
  66         0.00000000
  67         0.00000695
  68         0.02549523
  69         0.00000000
  70         0.00000016
  71         0.00000139
  72        -0.00000050
  73        -0.00732836
  74        -0.00000000
  75         0.00000000
  76        -0.15219896
  77        -0.02846195
  78        -0.07954838
  79        -0.01658994
  80         0.07952870
  81         0.01658656
  82         0.15220227
  83         0.02846246
  84         0.00000820
  85         0.00000003
Sym=     9a  
Ene=     0.0000
Spin= Alpha
Occup=    1.97324
   1        -0.07530582
   2         0.17982442
   3         0.21560354
   4         0.04839463
   5        -0.20012539
   6        -0.00000000
   7         0.05517217
   8        -0.09457415
   9        -0.00000000
  10        -0.00293346
  11         0.01265022
  12        -0.00508520
  13        -0.01919061
  14         0.00000000
  15        -0.00000000
  16         0.02574528
  17        -0.05859602
  18        -0.05272755
  19         0.05773631
  20        -0.01399115
  21         0.00000000
  22         0.02445399
  23         0.02084571
  24         0.00000000
  25        -0.00121555
  26        -0.00391124
  27         0.00213127
  28        -0.00806209
  29        -0.00000000
  30        -0.00000000
  31         0.02572907
  32        -0.05855804
  33        -0.05269343
  34         0.05771404
  35         0.01400591
  36        -0.00000000
  37         0.02443052
  38        -0.02083331
  39        -0.00000000
  40        -0.00121090
  41        -0.00391360
  42         0.00213007
  43         0.00805817
  44         0.00000000
  45        -0.00000000
  46        -0.07529819
  47         0.17980613
  48         0.21558916
  49         0.04841076
  50         0.20010279
  51         0.00000000
  52         0.05518350
  53         0.09455078
  54         0.00000000
  55        -0.00292684
  56         0.01264244
  57        -0.00508460
  58         0.01919296
  59        -0.00000000
  60        -0.00000000
  61         0.09995864
  62        -0.23099701
  63        -0.28373055
  64        -0.13535937
  65         0.00000438
  66         0.00000000
  67        -0.09142102
  68         0.00000453
  69         0.00000000
  70        -0.02533841
  71         0.01239865
  72         0.00655353
  73         0.00000389
  74        -0.00000000
  75         0.00000000
  76         0.17226220
  77         0.03489718
  78        -0.04496409
  79        -0.00922484
  80        -0.04493215
  81        -0.00921982
  82         0.17224511
  83         0.03489485
  84        -0.13401361
  85        -0.00643837
Sym=    10a  
Ene=     0.0000
Spin= Alpha
Occup=    1.97310
   1         0.04450672
   2        -0.10617584
   3        -0.08784808
   4        -0.09839037
   5         0.08761801
   6         0.00000000
   7        -0.03012385
   8         0.08074266
   9         0.00000000
  10         0.00684431
  11        -0.01331739
  12         0.00323586
  13         0.00426415
  14        -0.00000000
  15         0.00000000
  16        -0.09180843
  17         0.21433103
  18         0.18744750
  19        -0.13527564
  20        -0.13583627
  21        -0.00000000
  22        -0.11672420
  23        -0.09169880
  24        -0.00000000
  25         0.01446059
  26        -0.00108391
  27        -0.00676625
  28         0.01865977
  29         0.00000000
  30         0.00000000
  31         0.09181306
  32        -0.21434059
  33        -0.18745599
  34         0.13526387
  35        -0.13585475
  36        -0.00000000
  37         0.11671429
  38        -0.09172088
  39        -0.00000000
  40        -0.01445559
  41         0.00107787
  42         0.00676660
  43         0.01866393
  44         0.00000000
  45        -0.00000000
  46        -0.04452007
  47         0.10620786
  48         0.08788526
  49         0.09841386
  50         0.08763568
  51         0.00000000
  52         0.03014753
  53         0.08075398
  54         0.00000000
  55        -0.00684365
  56         0.01331851
  57        -0.00323678
  58         0.00427118
  59         0.00000000
  60        -0.00000000
  61         0.00000864
  62        -0.00001983
  63        -0.00002527
  64        -0.00000813
  65         0.06580272
  66         0.00000000
  67        -0.00000695
  68         0.02274200
  69         0.00000000
  70        -0.00000282
  71         0.00000171
  72         0.00000057
  73        -0.00402675
  74        -0.00000000
  75         0.00000000
  76        -0.10189269
  77        -0.01647686
  78         0.17956605
  79         0.02780123
  80        -0.17957378
  81        -0.02780302
  82         0.10192268
  83         0.01648302
  84        -0.00001236
  85        -0.00000063
Sym=    11a  
Ene=     0.0000
Spin= Alpha
Occup=    1.96983
   1         0.02196583
   2        -0.04096604
   3         0.04843526
   4         0.11734507
   5        -0.18564417
   6        -0.00000000
   7         0.03827909
   8        -0.03887426
   9        -0.00000000
  10         0.00042906
  11        -0.00469802
  12         0.00446213
  13         0.00271965
  14        -0.00000000
  15        -0.00000000
  16         0.00877453
  17        -0.00883773
  18         0.04438996
  19        -0.22684634
  20        -0.10839369
  21        -0.00000000
  22        -0.09042022
  23        -0.04965254
  24        -0.00000000
  25        -0.00248220
  26         0.00173029
  27         0.00322963
  28         0.00155697
  29         0.00000000
  30         0.00000000
  31         0.00877464
  32        -0.00883792
  33         0.04439074
  34        -0.22682598
  35         0.10843018
  36         0.00000000
  37        -0.09041098
  38         0.04966654
  39         0.00000000
  40        -0.00248252
  41         0.00173050
  42         0.00322965
  43        -0.00155591
  44         0.00000000
  45         0.00000000
  46         0.02196522
  47        -0.04096464
  48         0.04843660
  49         0.11737243
  50         0.18562651
  51        -0.00000000
  52         0.03828511
  53         0.03886848
  54         0.00000000
  55         0.00042847
  56        -0.00469733
  57         0.00446209
  58        -0.00272024
  59         0.00000000
  60         0.00000000
  61        -0.01358718
  62         0.04528375
  63         0.04838640
  64         0.26914662
  65        -0.00002361
  66        -0.00000000
  67         0.16433512
  68        -0.00001450
  69        -0.00000000
  70         0.00271498
  71         0.00327014
  72         0.00317543
  73         0.00000013
  74         0.00000000
  75         0.00000000
  76         0.08224563
  77         0.02713763
  78         0.11066391
  79         0.02393672
  80         0.11066277
  81         0.02393646
  82         0.08224644
  83         0.02713808
  84         0.12108360
  85        -0.01322208
Sym=    12a  
Ene=     0.0000
Spin= Alpha
Occup=    1.96107
   1        -0.06226131
   2         0.13815617
   3         0.05588884
   4        -0.19789338
   5         0.24201353
   6        -0.00000000
   7        -0.10282903
   8         0.11523477
   9        -0.00000000
  10         0.01364179
  11        -0.00973148
  12        -0.00610268
  13         0.00239847
  14         0.00000000
  15         0.00000000
  16        -0.03874234
  17         0.08593024
  18         0.03834570
  19         0.26239045
  20        -0.00580535
  21         0.00000000
  22         0.11284166
  23         0.03896072
  24         0.00000000
  25         0.01510754
  26        -0.01290914
  27        -0.00339743
  28        -0.01727524
  29        -0.00000000
  30        -0.00000000
  31         0.03873893
  32        -0.08592252
  33        -0.03834269
  34        -0.26238167
  35        -0.00577549
  36         0.00000000
  37        -0.11283118
  38         0.03897474
  39         0.00000000
  40        -0.01511283
  41         0.01291481
  42         0.00339711
  43        -0.01726970
  44         0.00000000
  45         0.00000000
  46         0.06226247
  47        -0.13815839
  48        -0.05588670
  49         0.19792433
  50         0.24198910
  51        -0.00000000
  52         0.10284562
  53         0.11521784
  54        -0.00000000
  55        -0.01363999
  56         0.00972940
  57         0.00610292
  58         0.00240408
  59         0.00000000
  60         0.00000000
  61         0.00000168
  62        -0.00000379
  63        -0.00000447
  64         0.00000070
  65        -0.15337516
  66         0.00000000
  67         0.00000270
  68        -0.08025210
  69         0.00000000
  70         0.00000361
  71        -0.00000350
  72         0.00000013
  73         0.02166260
  74        -0.00000000
  75        -0.00000000
  76        -0.10819841
  77        -0.03747057
  78        -0.08466091
  79        -0.03134375
  80         0.08465573
  81         0.03134150
  82         0.10819931
  83         0.03747165