   This run of MOLCAS is using the pymolcas driver

                             OPE
                             OPE          NMOL  CASOP  ENMOLC A   SO
                 OPE        NMOLC        AS  OP EN  MO LC     AS  OP
                OPENM       OL CA        SO  PE NM  OL CA     SOP EN
                OP EN      MO   LC       AS  OP ENMOL  CASO   PENMOL
                OP  EN     MO   LC       AS  OP EN     MO     LC ASO
               OP   E  NMOL  C  AS       OP  EN MO     LC     AS  OP
               OP  E   NMO   LC AS        OPEN  MO     LCASOP EN   M
               O  PEN   MO  LCA  SO
            OPE   NMO   L   CAS    OP
        OPENMOL  CASOP     ENMOL   CASOPE
     OPENMOLCA   SOPENMOLCASOPEN   MOLCASOPE
    OPENMOLCAS   OP           EN   MOL    CAS
    OPENMOLCAS       OP  ENM        O     LCA
    OPENMOLCAS    OPEN  MOLCASO     P  E  NMO
    OPENMOLCAS     OP               E  N  MOL
    OPENMOLCA   SO           PENM   O  L  CAS    OPEN    MO    LCAS
    OPENMOLCA   SOP           ENM   O  L  CAS   OP  EN  MOLC  AS   O
    OPENMOLCA   SOPE           NM      O  LCA   S      OP  EN MO
    OPENMOLC                AS         O  PEN   M      OL  CA  SOPE
    OPENMO        LCASOPE  NMOL        C  ASO   P      ENMOLC     AS
    OPE     NMO      LCA  SO     P     E   NM   OL  CA SO  PE N   MO
          OPENMOLCA            SOPE   NMO        LCAS  O    P  ENMO
     OPENMOLCASOPENMOLCASOPENMOLCASOPENMOLCA
        OPENMOLCASOPENMOLCASOPENMOLCASOPE
            OPENMOLCASOPENMOLCASOPENM
               OPENMOLCASOPENMOLCA        version: 26.02
                   OPENMOLCASO
                       OPE                tag: 684-gcd9c692f8

 OpenMolcas is free software; you can redistribute it and/or modify it
 under the terms of the GNU Lesser General Public License version 2.1.
 OpenMolcas is distributed in the hope that it will be useful, but it
 is provided "as is" and without any express or implied warranties.
 For more details see the full text of the license in the file
 LICENSE or in <http://www.gnu.org/licenses/>.

                 Copyright (C) The OpenMolcas Authors
           For the author list and the recommended citation,
                   consult the file CONTRIBUTORS.md

           *************************************************
           * pymolcas version py2.32                       *
           *   build 5fe1e42a8a423461f97be6f8128d9c45      *
           *   (after the EMIL interpreter by V. Veryazov) *
           *************************************************

configuration info
------------------
Host name: cpn-d01-33.core.ccr.buffalo.edu (Linux)
C Compiler ID: Intel
C flags: -std=gnu99 -gcc-sys
Fortran Compiler ID: Intel
Fortran flags: -fpp -i8 -heap-arrays
Definitions: _MOLCAS_;_I8_;_LINUX_;_MOLCAS_MPP_;_SCALAPACK_;_GA_
Parallel: ON (GA=ON)


   ---------------------------------------------------------------------------------------------------------------------------------------------------------------------------
  |
  |           Project: nc4h5_project
  |    Submitted from: /vscratch/grp-cyberwksp21/sbakenhaster/wed_7_8/openmolcas_pyspawn/Tutorials_OpenMolcas/03_S1_Optimization_CASPT2/nc4h5_project
  |      Scratch area: /vscratch/grp-cyberwksp21/sbakenhaster/wed_7_8/openmolcas_pyspawn/Tutorials_OpenMolcas/03_S1_Optimization_CASPT2/nc4h5_project/cp_outputs/nc4h5_project
  |   Save outputs to: /vscratch/grp-cyberwksp21/sbakenhaster/wed_7_8/openmolcas_pyspawn/Tutorials_OpenMolcas/03_S1_Optimization_CASPT2/nc4h5_project
  |            Molcas: /projects/academic/cyberwksp21/SOFTWARE_2026/OpenMolcas
  |
  | Scratch area is empty
  |
  |    MOLCAS_DRIVER = /projects/academic/cyberwksp21/SOFTWARE_2026/OpenMolcas/pymolcas
  |   MOLCAS_MAXITER = 900
  |    MOLCAS_MOLDEN = YES
  |    MOLCAS_NNODES = 1
  |  MOLCAS_NODELIST = cpn-b02-35-02
  |    MOLCAS_NPROCS = 1
  |     MOLCAS_PRINT = NORMAL
  |    MOLCAS_SOURCE = /projects/academic/cyberwksp21/SOFTWARE_2026/OpenMolcas
  | MOLCAS_STRUCTURE = 0
  |      MOLCAS_TRAP = YES
  |
   ---------------------------------------------------------------------------------------------------------------------------------------------------------------------------

++ ---------   Input file   ---------

&GATEWAY
  Coord
  10
  ncyclopentadiene
  C     0.3235519084255770  -1.1226642550448711   0.0000000000000000
  C    -0.9913023111633311  -0.7127862249600859   0.0000000000000000
  C    -0.9911869123743692   0.7129343839929452   0.0000000000000000
  C     0.3237331862085714   1.1226000626945218   0.0000000000000000
  N     1.1103268123515471  -0.0000953512254621   0.0000000000000000
  H     0.7608592230312906  -2.1146467608627528   0.0000000000000000
  H    -1.8594597839218918  -1.3639697456872739   0.0000000000000000
  H    -1.8592395603919483   1.3642572439844369   0.0000000000000000
  H     0.7612001732748727   2.1145120485125775   0.0000000000000000
  H     2.1168703529324349  -0.0001762199539692   0.0000000000000000
  Basis = 6-31G*
  Group = NoSym
  RICD

>>> DO WHILE

  &SEWARD

  >>> IF (ITER == 1)

    &SCF
     Charge = 0
     Spin = 1

  >>> END IF

  &RASSCF
                  Title = cyclopent SA-3-CAS(2,2)SCF
                  symmetry = 1
                  Nactel = 2 0 0
                  Spin = 1
                  Inactive = 16
                  Ras2 = 2
                  ciroot  =  3  3  1

  &CASPT2
                  XMultiState = all
                  convergence = 1.0d-07
                  IPEA        = 0.00
                  IMAGinary   = 0.25
                  RLXRoot     = 2

  >>> COPY $WorkDir/$Project.JobMix $WorkDir/JOB001

  &ALASKA
                  CutOFF=1.0D-9
                  SHOW

  &SLAPAF

>>> END DO

&RASSI
        NR OF JOBIPHS= 1 3
        1 2 3
        TRDI
        CIPRint
        EJob

-- ----------------------------------

--- Start Module: gateway at Sat Jul 18 01:33:14 2026 ---
 
()()()()()()()()()()()()()()()()()()()()()()()()()()()()()()()()()()()()()()()()()()()()()()()()()()

                                              &GATEWAY

                       only a single process is used, running in SERIAL mode
                       available to each process: 2.0 GB of memory, 1 thread?
                                            pid: 1523704
()()()()()()()()()()()()()()()()()()()()()()()()()()()()()()()()()()()()()()()()()()()()()()()()()()
 
 
++    Symmetry information:
      ---------------------
 
                    Character Table for C1 
 
                             E  
                    a        1  x, y, xy, Rz, z, xz, Ry, yz, Rx, I
--
 
 
++    Basis set information:
      ----------------------
 
 
      Basis set label: C.6-31G**....
 
      Electronic valence basis set:
      ------------------
      Associated Effective Charge   6.000000 au
      Associated Actual Charge      6.000000 au
      Nuclear Model: Point charge
 
      Shell  nPrim  nBasis  Cartesian Spherical Contaminant
         s      10       3        X                  
         p       4       2        X                  
         d       1       1        X                  
 
 
      Basis set label: N.6-31G**....
 
      Electronic valence basis set:
      ------------------
      Associated Effective Charge   7.000000 au
      Associated Actual Charge      7.000000 au
      Nuclear Model: Point charge
 
      Shell  nPrim  nBasis  Cartesian Spherical Contaminant
         s      10       3        X                  
         p       4       2        X                  
         d       1       1        X                  
 
 
      Basis set label: H.6-31G....
 
      Electronic valence basis set:
      ------------------
      Associated Effective Charge   1.000000 au
      Associated Actual Charge      1.000000 au
      Nuclear Model: Point charge
 
      Shell  nPrim  nBasis  Cartesian Spherical Contaminant
         s       4       2        X                  
--
 
 
++    Molecular structure info:
      -------------------------
 
                    ************************************************ 
                    **** Cartesian Coordinates / bohr, angstrom **** 
                    ************************************************ 
 
     Center  Label                x              y              z                     x              y              z
        1      C1               0.611424      -2.121528       0.000000              0.323552      -1.122664       0.000000
        2      C2              -1.873290      -1.346971       0.000000             -0.991302      -0.712786       0.000000
        3      C3              -1.873072       1.347251       0.000000             -0.991187       0.712934       0.000000
        4      C4               0.611767       2.121407       0.000000              0.323733       1.122600       0.000000
        5      N5               2.098214      -0.000180       0.000000              1.110327      -0.000095       0.000000
        6      H6               1.437816      -3.996103       0.000000              0.760859      -2.114647       0.000000
        7      H7              -3.513870      -2.577529       0.000000             -1.859460      -1.363970       0.000000
        8      H8              -3.513454       2.578073       0.000000             -1.859240       1.364257       0.000000
        9      H9               1.438460       3.995849       0.000000              0.761200       2.114512       0.000000
       10      H10              4.000305      -0.000333       0.000000              2.116870      -0.000176       0.000000
 
                    *************************************** 
                    *    InterNuclear Distances / bohr    * 
                    *************************************** 
 
               1 C1            2 C2            3 C3            4 C4            5 N5            6 H6    
    1 C1       0.000000
    2 C2       2.602642        0.000000
    3 C3       4.266749        2.694221        0.000000
    4 C4       4.242935        4.266749        2.602641        0.000000
    5 N5       2.590494        4.193648        4.193647        2.590493        0.000000
    6 H6       2.048647        4.240439        6.285969        6.173029        4.050127        0.000000
    7 H7       4.150420        2.050799        4.253953        6.253069        6.175614        5.150878
    8 H8       6.253068        4.253951        2.050799        4.150420        6.175613        8.230119
    9 H9       6.173029        6.285969        4.240438        2.048647        4.050126        7.991952
   10 H10      3.997997        6.025990        6.025989        3.997996        1.902092        4.746845
 
               7 H7            8 H8            9 H9           10 H10   
    7 H7       0.000000
    8 H8       5.155602        0.000000
    9 H9       8.230119        5.150877        0.000000
   10 H10      7.943851        7.943850        4.746843        0.000000
 
                    ******************************************* 
                    *    InterNuclear Distances / angstrom    * 
                    ******************************************* 
 
               1 C1            2 C2            3 C3            4 C4            5 N5            6 H6    
    1 C1       0.000000
    2 C2       1.377259        0.000000
    3 C3       2.257866        1.425721        0.000000
    4 C4       2.245264        2.257867        1.377258        0.000000
    5 N5       1.370830        2.219183        2.219183        1.370830        0.000000
    6 H6       1.084097        2.243944        3.326392        3.266626        2.143235        0.000000
    7 H7       2.196308        1.085236        2.251095        3.308982        3.267994        2.725727
    8 H8       3.308981        2.251094        1.085236        2.196308        3.267994        4.355191
    9 H9       3.266626        3.326392        2.243943        1.084097        2.143234        4.229159
   10 H10      2.115649        3.188816        3.188816        2.115648        1.006544        2.511922
 
               7 H7            8 H8            9 H9           10 H10   
    7 H7       0.000000
    8 H8       2.728227        0.000000
    9 H9       4.355192        2.725727        0.000000
   10 H10      4.203705        4.203704        2.511921        0.000000
 
                    ************************************** 
                    *    Valence Bond Angles / degree    * 
                    ************************************** 
                          Atom centers                 Phi
                      2 C2       1 C1       5 N5       107.71
                      2 C2       1 C1       6 H6       131.10
                      5 N5       1 C1       6 H6       121.18
                      1 C1       2 C2       3 C3       107.31
                      1 C1       2 C2       7 H7       125.81
                      3 C3       2 C2       7 H7       126.88
                      2 C2       3 C3       4 C4       107.31
                      2 C2       3 C3       8 H8       126.88
                      4 C4       3 C3       8 H8       125.81
                      3 C3       4 C4       5 N5       107.71
                      3 C3       4 C4       9 H9       131.10
                      5 N5       4 C4       9 H9       121.18
                      1 C1       5 N5       4 C4       109.96
                      1 C1       5 N5      10 H10      125.02
                      4 C4       5 N5      10 H10      125.02
 
           ***************************************************************
           *              Valence Dihedral Angles / degree               *
           ***************************************************************
                    Atom centers                       Phi1     Phi2     Theta 
           5 N5       1 C1       2 C2       7 H7        107.71   125.81  -180.00
           6 H6       1 C1       2 C2       7 H7        131.10   125.81     0.00
           2 C2       1 C1       5 N5       4 C4        107.71   109.96     0.00
           2 C2       1 C1       5 N5      10 H10       107.71   125.02  -180.00
           6 H6       1 C1       5 N5      10 H10       121.18   125.02     0.00
           3 C3       2 C2       1 C1       5 N5        107.31   107.71     0.00
           3 C3       2 C2       1 C1       6 H6        107.31   131.10  -180.00
           1 C1       2 C2       3 C3       4 C4        107.31   107.31     0.00
           1 C1       2 C2       3 C3       8 H8        107.31   126.88  -180.00
           7 H7       2 C2       3 C3       8 H8        126.88   126.88     0.00
           4 C4       3 C3       2 C2       7 H7        107.31   126.88  -180.00
           2 C2       3 C3       4 C4       5 N5        107.31   107.71     0.00
           2 C2       3 C3       4 C4       9 H9        107.31   131.10  -180.00
           8 H8       3 C3       4 C4       9 H9        125.81   131.10     0.00
           5 N5       4 C4       3 C3       8 H8        107.71   125.81  -180.00
           3 C3       4 C4       5 N5      10 H10       107.71   125.02  -180.00
           9 H9       4 C4       5 N5      10 H10       121.18   125.02     0.00
           4 C4       5 N5       1 C1       6 H6        109.96   121.18  -180.00
           1 C1       5 N5       4 C4       3 C3        109.96   107.71     0.00
           1 C1       5 N5       4 C4       9 H9        109.96   121.18  -180.00
--
 
 
            Nuclear Potential Energy            160.88522231 au
 
--- Stop Module: gateway at Sat Jul 18 01:33:16 2026 /rc=_RC_ALL_IS_WELL_ ---
*** files: nc4h5_project.RICDLib xmldump
    saved to directory /vscratch/grp-cyberwksp21/sbakenhaster/wed_7_8/openmolcas_pyspawn/Tutorials_OpenMolcas/03_S1_Optimization_CASPT2/nc4h5_project
--- Module gateway spent 1 second ---

--- Start Module: seward at Sat Jul 18 01:33:16 2026 ---
 
()()()()()()()()()()()()()()()()()()()()()()()()()()()()()()()()()()()()()()()()()()()()()()()()()()

                                              &SEWARD

                       only a single process is used, running in SERIAL mode
                       available to each process: 2.0 GB of memory, 1 thread?
                                            pid: 1523707
()()()()()()()()()()()()()()()()()()()()()()()()()()()()()()()()()()()()()()()()()()()()()()()()()()
 
               SEWARD will generate:
                  Multipole Moment integrals up to order  2
                  Kinetic Energy integrals
                  Nuclear Attraction integrals (point charge)
                  One-Electron Hamiltonian integrals
                  Velocity integrals
                  Orbital angular momentum around ( -0.0156  -0.0000   0.0000 )
                  Velocity quadrupole around ( -0.0156  -0.0000   0.0000 )
                  RI decomposed two-electron repulsion integrals stored Cholesky style
                   - acCD auxiliary basis
                   - CD Threshold:   1.00E-04
 
                   Integrals are discarded if absolute value <: 1.00E-14
                   Integral cutoff threshold is set to       <: 1.00E-16
 
            Nuclear Potential Energy            160.88522231 au
 
 
      Basis set specifications :
      Symmetry species         a  
      Basis functions           85
 
 
      Input file to MOLDEN was generated!
 
--- Stop Module: seward at Sat Jul 18 01:33:17 2026 /rc=_RC_ALL_IS_WELL_ ---
*** files: nc4h5_project.GssOrb nc4h5_project.guessorb.h5 nc4h5_project.guessorb.molden xmldump
    saved to directory /vscratch/grp-cyberwksp21/sbakenhaster/wed_7_8/openmolcas_pyspawn/Tutorials_OpenMolcas/03_S1_Optimization_CASPT2/nc4h5_project
--- Module seward spent 1 second ---

>>> IF (ITER == 1)

*** symbolic link created: INPORB -> nc4h5_project.GssOrb
--- Start Module: scf at Sat Jul 18 01:33:17 2026 ---
 
()()()()()()()()()()()()()()()()()()()()()()()()()()()()()()()()()()()()()()()()()()()()()()()()()()

                                                &SCF

                       only a single process is used, running in SERIAL mode
                       available to each process: 2.0 GB of memory, 1 thread?
                                            pid: 1523713
()()()()()()()()()()()()()()()()()()()()()()()()()()()()()()()()()()()()()()()()()()()()()()()()()()
 
++    Input section:
      --------------
 
      Header of the integral files:
      
       Integrals generated by Gateway/Seward, Sat Jul 18 01:33:16 2026
 
 
      Cartesian coordinates in angstrom:
      -----------------------------------------------------
      No.  Label        X            Y            Z        
      -----------------------------------------------------
       1   C1         0.32355191  -1.12266426   0.00000000
       2   C2        -0.99130231  -0.71278622   0.00000000
       3   C3        -0.99118691   0.71293438   0.00000000
       4   C4         0.32373319   1.12260006   0.00000000
       5   N5         1.11032681  -0.00009535   0.00000000
       6   H6         0.76085922  -2.11464676   0.00000000
       7   H7        -1.85945978  -1.36396975   0.00000000
       8   H8        -1.85923956   1.36425724   0.00000000
       9   H9         0.76120017   2.11451205   0.00000000
      10   H10        2.11687035  -0.00017622   0.00000000
      -----------------------------------------------------
      Nuclear repulsion energy =  160.88522231
--
 
++    Orbital specifications:
      -----------------------
 
      Symmetry species               1
                                     a
      Frozen orbitals                0
      Occupied orbitals             18
      Secondary orbitals            67
      Deleted orbitals               0
      Total number of orbitals      85
      Number of basis functions     85
--
 
      Molecular charge                           0.000
 
++    Optimization specifications:
      ----------------------------
 
      SCF Algorithm: LK-RI/DF
      LK screening threshold:                     4.50E-02
      Local-Exchange (LK) algorithm.
       - the density matrix is decomposed
      The actual AO density is used
      Number of density matrices in core                 5
      Maximum number of NDDO SCF iterations            400
      Maximum number of HF SCF iterations              400
      Threshold for SCF energy change             1.00E-09
      Threshold for density matrix                1.00E-04
      Threshold for Fock matrix                   1.50E-04
      Threshold for linear dependence             1.00E-09
      Threshold at which DIIS is turned on        1.50E-01
      Maximum depth in the DIIS procedure                5
      Maximum depth in the BFGS Hessian update          30
      Threshold at which QNR/C2DIIS is turned on  7.50E-02
      Threshold for Norm(delta) (QNR/C2DIIS)      1.00E-03
      All orbitals punched on: SCFORB
--
 
      Input vectors read from INPORB
      Orbital file label: *Guess orbitals
 
 
++ Convergence information
                                   SCF        iterations: Energy and convergence statistics
 
Iter     Tot. SCF        One-elec.       Two-elec.     Energy      Max Dij or  Max Fij      DNorm      TNorm      AccCon     Time
         Energy          Energy          Energy        Change      Delta Norm                                                in Sec.
   1  -208.415706781  -595.423565409   226.122636314   0.00E+00    1.62E-01*   1.21E-01*    6.43E+00   2.30E+02   None         0.
   2  -208.770257851  -602.119430520   232.463950355  -3.55E-01*   1.35E-01*   7.53E-02*    6.51E+00   2.33E+02   EDIIS        0.
   3  -208.800436062  -599.636348340   229.950689964  -3.02E-02*   1.79E-02*   1.15E-02*    6.50E+00   2.31E+02   c2DIIS       0.
   4  -208.805485601  -600.569274134   230.878566218  -5.05E-03*   1.15E-02*   7.52E-03*    6.52E+00   2.32E+02   QNRc2DIIS    0.
   5  -208.805803460  -600.406824605   230.715798830  -3.18E-04*   4.89E-03*   1.21E-03*    6.53E+00   2.32E+02   QNRc2DIIS    0.
   6  -208.805853415  -600.465351596   230.774275867  -5.00E-05*   9.47E-04    2.96E-04*    6.53E+00   2.32E+02   QNRc2DIIS    0.
   7  -208.805854454  -600.469853984   230.778777216  -1.04E-06*   3.28E-04    1.63E-04*    6.53E+00   2.32E+02   QNRc2DIIS    0.
   8  -208.805854853  -600.466828905   230.775751737  -3.99E-07*   1.23E-04    2.55E-05     6.53E+00   2.32E+02   QNRc2DIIS    0.
   9  -208.805854872  -600.466889273   230.775812087  -1.85E-08*   4.77E-05    8.68E-06     6.53E+00   2.32E+02   QNRc2DIIS    0.
  10  -208.805854873  -600.466876841   230.775799653  -1.72E-09*   5.99E-06    1.38E-06     6.53E+00   2.32E+02   QNRc2DIIS    0.
  11  -208.805854873  -600.466902175   230.775824987  -3.71E-11    2.31E-06    7.02E-07     6.53E+00   2.32E+02   QNRc2DIIS    0.
 
       Convergence after  11 Iterations
--
 
 *****************************************************************************************************************************
 *                                                                                                                           *
 *                                             SCF/KS-DFT Program, Final results                                             *
 *                                                                                                                           *
 *                                                                                                                           *
 *                                                                                                                           *
 *                                                       Final Results                                                       *
 *                                                                                                                           *
 *****************************************************************************************************************************
 
::    Total SCF energy                               -208.8058548735
      One-electron energy                            -600.4669021754
      Two-electron energy                             230.7758249874
      Nuclear repulsion energy                        160.8852223145
      Kinetic energy (interpolated)                   208.3062519570
      Virial theorem                                    1.0023984058
      Total spin, S(S+1)                                0.0000000000
      Total spin, S                                     0.0000000000
      Max non-diagonal density matrix element           0.0000026325
      Max non-diagonal Fock matrix element              0.0000001452
 
 
      All orbitals with orbital energies smaller than  E(LUMO)+0.5 are printed
 
++    Molecular orbitals:
      -------------------
 
      Title: SCF orbitals

      Molecular orbitals for symmetry species 1: a  
 
          Orbital            1         2         3         4         5         6         7         8         9        10    
          Energy          -15.6052  -11.2474  -11.2474  -11.2046  -11.2036   -1.2828   -1.0318   -0.9683   -0.7843   -0.7580
          Occ. No.          2.0000    2.0000    2.0000    2.0000    2.0000    2.0000    2.0000    2.0000    2.0000    2.0000
 
        1 C1     1s         0.0000   -0.7045    0.7034   -0.0108    0.0109   -0.0859    0.0364    0.1337    0.0721    0.0300
        2 C1     2s         0.0002   -0.0195    0.0190   -0.0005    0.0004    0.1637   -0.0698   -0.2645   -0.1447   -0.0634
        3 C1     *s         0.0019    0.0093   -0.0044    0.0044   -0.0048    0.0368   -0.0505   -0.1895   -0.0958    0.0105
        4 C1     2px        0.0002   -0.0004    0.0006    0.0002   -0.0001    0.0291    0.1319    0.0157   -0.0028   -0.2208
        5 C1     *px       -0.0001   -0.0019   -0.0006   -0.0014    0.0015    0.0063    0.0148    0.0082   -0.0179   -0.0644
        6 C1     2py        0.0002   -0.0006    0.0007   -0.0000    0.0001    0.0945    0.0019   -0.0144   -0.0171   -0.0184
        7 C1     *py        0.0012    0.0020    0.0020    0.0016   -0.0015   -0.0261   -0.0001    0.0197    0.0381    0.0419
        8 C1     2pz       -0.0000    0.0000    0.0000    0.0000   -0.0000   -0.0000    0.0000    0.0000    0.0000   -0.0000
        9 C1     *pz        0.0000   -0.0000    0.0000   -0.0000    0.0000    0.0000    0.0000   -0.0000    0.0000    0.0000
       10 C1     *200      -0.0000    0.0007   -0.0007   -0.0001    0.0002    0.0025   -0.0032   -0.0064    0.0035    0.0026
       11 C1     *110      -0.0000    0.0000    0.0000    0.0000   -0.0001    0.0089    0.0153    0.0021    0.0034   -0.0096
       12 C1     *101       0.0000   -0.0000   -0.0000   -0.0000    0.0000   -0.0000   -0.0000   -0.0000    0.0000    0.0000
       13 C1     *020      -0.0001    0.0007   -0.0005   -0.0001    0.0002    0.0077    0.0014   -0.0036   -0.0086   -0.0075
       14 C1     *011      -0.0000   -0.0000   -0.0000    0.0000   -0.0000   -0.0000   -0.0000   -0.0000    0.0000    0.0000
       15 C1     *002      -0.0000    0.0009   -0.0010   -0.0000    0.0000   -0.0057    0.0014    0.0064    0.0039    0.0026
       16 C2     1s         0.0000   -0.0105    0.0105    0.7038   -0.7041   -0.0451    0.1282    0.0703   -0.0675   -0.0965
       17 C2     2s        -0.0000   -0.0001    0.0001    0.0196   -0.0197    0.0825   -0.2431   -0.1350    0.1336    0.1921
       18 C2     *s        -0.0007   -0.0055    0.0008   -0.0070    0.0140    0.0589   -0.1807   -0.1165    0.1175    0.1231
       19 C2     2px       -0.0001    0.0001   -0.0002    0.0001   -0.0003    0.0478   -0.0391   -0.0748   -0.1509   -0.0147
       20 C2     *px       -0.0005   -0.0027    0.0000   -0.0014    0.0022    0.0146   -0.0025   -0.0051   -0.0595   -0.0593
       21 C2     2py        0.0001    0.0000    0.0001    0.0001   -0.0002    0.0189   -0.0637    0.0735    0.0711   -0.1222
       22 C2     *py       -0.0002   -0.0002   -0.0006    0.0002    0.0027    0.0061   -0.0059    0.0053    0.0085   -0.0800
       23 C2     2pz       -0.0000    0.0000   -0.0000    0.0000   -0.0000    0.0000   -0.0000    0.0000   -0.0000   -0.0000
       24 C2     *pz        0.0000    0.0000    0.0000    0.0000    0.0000    0.0000    0.0000    0.0000   -0.0000   -0.0000
       25 C2     *200       0.0000    0.0001   -0.0001   -0.0008    0.0005    0.0038   -0.0034   -0.0076   -0.0015    0.0076
       26 C2     *110       0.0000    0.0001    0.0000    0.0000   -0.0001    0.0008   -0.0029    0.0033    0.0067    0.0070
       27 C2     *101       0.0000   -0.0000   -0.0000    0.0000   -0.0000    0.0000   -0.0000   -0.0000    0.0000   -0.0000
       28 C2     *020       0.0000    0.0002   -0.0000   -0.0009    0.0005    0.0012   -0.0074    0.0034    0.0078   -0.0015
       29 C2     *011       0.0000    0.0000   -0.0000    0.0000    0.0000    0.0000   -0.0000    0.0000    0.0000   -0.0000
       30 C2     *002       0.0000    0.0001   -0.0000   -0.0010    0.0009   -0.0027    0.0063    0.0029   -0.0025   -0.0037
       31 C3     1s         0.0000    0.0104    0.0105    0.7038    0.7042   -0.0451    0.1282   -0.0703   -0.0675    0.0965
       32 C3     2s        -0.0000    0.0001    0.0001    0.0196    0.0197    0.0825   -0.2431    0.1350    0.1336   -0.1921
       33 C3     *s        -0.0007    0.0055    0.0008   -0.0070   -0.0140    0.0589   -0.1807    0.1165    0.1175   -0.1231
       34 C3     2px       -0.0001   -0.0001   -0.0002    0.0001    0.0003    0.0478   -0.0391    0.0748   -0.1509    0.0147
       35 C3     *px       -0.0005    0.0027    0.0000   -0.0014   -0.0022    0.0146   -0.0025    0.0051   -0.0595    0.0593
       36 C3     2py       -0.0001    0.0000   -0.0001   -0.0001   -0.0002   -0.0189    0.0637    0.0734   -0.0711   -0.1222
       37 C3     *py        0.0002   -0.0002    0.0006   -0.0002    0.0027   -0.0061    0.0059    0.0053   -0.0085   -0.0800
       38 C3     2pz        0.0000    0.0000   -0.0000   -0.0000   -0.0000   -0.0000   -0.0000    0.0000    0.0000   -0.0000
       39 C3     *pz       -0.0000   -0.0000   -0.0000    0.0000    0.0000   -0.0000   -0.0000    0.0000    0.0000   -0.0000
       40 C3     *200       0.0000   -0.0001   -0.0001   -0.0008   -0.0005    0.0038   -0.0034    0.0077   -0.0015   -0.0076
       41 C3     *110      -0.0000    0.0001   -0.0000   -0.0000   -0.0001   -0.0008    0.0029    0.0033   -0.0067    0.0070
       42 C3     *101       0.0000   -0.0000   -0.0000    0.0000    0.0000   -0.0000    0.0000   -0.0000    0.0000    0.0000
       43 C3     *020       0.0000   -0.0002   -0.0000   -0.0009   -0.0005    0.0012   -0.0074   -0.0034    0.0078    0.0015
       44 C3     *011       0.0000    0.0000    0.0000    0.0000    0.0000   -0.0000   -0.0000   -0.0000   -0.0000    0.0000
       45 C3     *002       0.0000   -0.0001   -0.0000   -0.0010   -0.0009   -0.0027    0.0063   -0.0029   -0.0025    0.0037
       46 C4     1s         0.0000    0.7035    0.7044   -0.0108   -0.0109   -0.0859    0.0364   -0.1337    0.0721   -0.0300
       47 C4     2s         0.0002    0.0195    0.0190   -0.0005   -0.0004    0.1637   -0.0698    0.2645   -0.1447    0.0634
       48 C4     *s         0.0019   -0.0093   -0.0045    0.0044    0.0048    0.0368   -0.0505    0.1895   -0.0958   -0.0105
       49 C4     2px        0.0002    0.0004    0.0006    0.0002    0.0001    0.0291    0.1319   -0.0157   -0.0027    0.2208
       50 C4     *px       -0.0001    0.0019   -0.0005   -0.0014   -0.0015    0.0063    0.0148   -0.0082   -0.0179    0.0644
       51 C4     2py       -0.0002   -0.0006   -0.0007    0.0000    0.0001   -0.0945   -0.0019   -0.0144    0.0171   -0.0185
       52 C4     *py       -0.0012    0.0020   -0.0020   -0.0016   -0.0015    0.0261    0.0001    0.0197   -0.0381    0.0419
       53 C4     2pz        0.0000   -0.0000   -0.0000    0.0000    0.0000    0.0000    0.0000    0.0000   -0.0000   -0.0000
       54 C4     *pz       -0.0000    0.0000    0.0000   -0.0000   -0.0000    0.0000   -0.0000    0.0000   -0.0000   -0.0000
       55 C4     *200      -0.0000   -0.0007   -0.0007   -0.0001   -0.0002    0.0025   -0.0032    0.0064    0.0035   -0.0026
       56 C4     *110       0.0000    0.0000   -0.0000   -0.0000   -0.0001   -0.0089   -0.0153    0.0021   -0.0035   -0.0096
       57 C4     *101      -0.0000   -0.0000   -0.0000    0.0000    0.0000    0.0000   -0.0000    0.0000   -0.0000    0.0000
       58 C4     *020      -0.0001   -0.0007   -0.0005   -0.0001   -0.0002    0.0077    0.0015    0.0036   -0.0086    0.0075
       59 C4     *011      -0.0000   -0.0000    0.0000    0.0000    0.0000   -0.0000    0.0000    0.0000    0.0000    0.0000
       60 C4     *002      -0.0000   -0.0009   -0.0010   -0.0000   -0.0000   -0.0057    0.0014   -0.0064    0.0039   -0.0026
       61 N5     1s         0.9950    0.0000   -0.0003    0.0001    0.0000   -0.1709   -0.0962    0.0000   -0.0377    0.0000
       62 N5     2s         0.0252   -0.0000    0.0007    0.0002    0.0000    0.3535    0.2081   -0.0000    0.0833   -0.0000
       63 N5     *s        -0.0034    0.0000   -0.0012   -0.0029   -0.0000    0.3696    0.2395   -0.0000    0.0911   -0.0000
       64 N5     2px       -0.0001    0.0000   -0.0001   -0.0001   -0.0000   -0.0573    0.1034    0.0000    0.3195    0.0000
       65 N5     *px        0.0011   -0.0000    0.0030    0.0013    0.0000   -0.0408    0.0588    0.0000    0.2030    0.0000
       66 N5     2py        0.0000    0.0000    0.0000    0.0000    0.0000    0.0000   -0.0000    0.2114   -0.0000    0.2696
       67 N5     *py       -0.0000   -0.0001   -0.0000   -0.0000   -0.0005    0.0000   -0.0000    0.0982   -0.0000    0.1579
       68 N5     2pz        0.0000   -0.0000    0.0000   -0.0000    0.0000   -0.0000   -0.0000    0.0000   -0.0000    0.0000
       69 N5     *pz       -0.0000    0.0000    0.0000    0.0000    0.0000   -0.0000    0.0000    0.0000   -0.0000   -0.0000
       70 N5     *200      -0.0020    0.0000   -0.0003    0.0002    0.0000    0.0103    0.0054   -0.0000    0.0125   -0.0000
       71 N5     *110      -0.0000    0.0004    0.0000   -0.0000   -0.0001   -0.0000   -0.0000   -0.0164   -0.0000   -0.0082
       72 N5     *101       0.0000   -0.0000    0.0000    0.0000    0.0000   -0.0000    0.0000   -0.0000    0.0000   -0.0000
       73 N5     *020      -0.0020    0.0000   -0.0004    0.0001    0.0000    0.0051    0.0011    0.0000   -0.0064    0.0000
       74 N5     *011       0.0000   -0.0000    0.0000   -0.0000    0.0000    0.0000    0.0000    0.0000   -0.0000    0.0000
       75 N5     *002      -0.0020   -0.0000    0.0002    0.0001    0.0000   -0.0071   -0.0020    0.0000   -0.0011   -0.0000
       76 H6     1s        -0.0000    0.0003   -0.0001   -0.0000   -0.0000    0.0238   -0.0072   -0.0897   -0.0578   -0.0624
       77 H6     *s         0.0003   -0.0006    0.0022    0.0004   -0.0002   -0.0094    0.0009   -0.0208   -0.0117   -0.0230
       78 H7     1s        -0.0000   -0.0000   -0.0001   -0.0002    0.0002    0.0099   -0.0594   -0.0430    0.0958    0.1264
       79 H7     *s        -0.0001   -0.0003   -0.0002    0.0010   -0.0008    0.0015   -0.0102   -0.0097    0.0414    0.0422
       80 H8     1s        -0.0000    0.0000   -0.0001   -0.0002   -0.0002    0.0099   -0.0594    0.0430    0.0958   -0.1264
       81 H8     *s        -0.0001    0.0003   -0.0002    0.0010    0.0008    0.0015   -0.0102    0.0097    0.0414   -0.0422
       82 H9     1s        -0.0000   -0.0003   -0.0001   -0.0000    0.0000    0.0238   -0.0072    0.0897   -0.0578    0.0624
       83 H9     *s         0.0003    0.0006    0.0022    0.0004    0.0002   -0.0094    0.0009    0.0208   -0.0117    0.0230
       84 H10    1s         0.0001    0.0000   -0.0003   -0.0001   -0.0000    0.0836    0.1127   -0.0000    0.2026   -0.0000
       85 H10    *s         0.0001    0.0000   -0.0010   -0.0002   -0.0000    0.0043    0.0084   -0.0000    0.0598   -0.0000
 
          Orbital           11        12        13        14        15        16        17        18        19        20    
          Energy           -0.7270   -0.5837   -0.5745   -0.5578   -0.5386   -0.5175   -0.3362   -0.2888    0.2029    0.2245
          Occ. No.          2.0000    2.0000    2.0000    2.0000    2.0000    2.0000    2.0000    2.0000    0.0000    0.0000
 
        1 C1     1s        -0.0618   -0.0051   -0.0091   -0.0000   -0.0357    0.0023   -0.0000    0.0000    0.0000   -0.0180
        2 C1     2s         0.1225    0.0120    0.0125    0.0000    0.0745   -0.0110    0.0000    0.0000   -0.0000    0.0135
        3 C1     *s         0.1619    0.0113    0.0581    0.0000    0.1006    0.0100    0.0000   -0.0000    0.0000    0.4935
        4 C1     2px        0.0147   -0.2014   -0.0116    0.0000   -0.2319    0.1794    0.0000   -0.0000    0.0000    0.0092
        5 C1     *px        0.0255   -0.0713    0.0409   -0.0000   -0.0942    0.0867   -0.0000   -0.0000   -0.0000   -0.0803
        6 C1     2py       -0.2455   -0.0224   -0.3125   -0.0000    0.0667   -0.0963   -0.0000   -0.0000   -0.0000   -0.1156
        7 C1     *py       -0.0799   -0.0027   -0.1351   -0.0000    0.0308   -0.0441   -0.0000   -0.0000    0.0000   -0.1819
        8 C1     2pz       -0.0000   -0.0000   -0.0000    0.2181   -0.0000   -0.0000   -0.0460   -0.3415   -0.3079    0.0000
        9 C1     *pz        0.0000   -0.0000   -0.0000    0.1151   -0.0000   -0.0000   -0.0469   -0.3101   -0.6167    0.0000
       10 C1     *200       0.0031    0.0061   -0.0047   -0.0000    0.0021   -0.0048    0.0000   -0.0000    0.0000    0.0038
       11 C1     *110      -0.0152   -0.0162   -0.0264   -0.0000   -0.0100   -0.0133   -0.0000   -0.0000    0.0000    0.0105
       12 C1     *101       0.0000    0.0000   -0.0000    0.0035    0.0000   -0.0000    0.0268    0.0105    0.0028    0.0000
       13 C1     *020       0.0008   -0.0088    0.0084    0.0000   -0.0052    0.0091    0.0000   -0.0000    0.0000   -0.0029
       14 C1     *011       0.0000   -0.0000   -0.0000    0.0188   -0.0000   -0.0000    0.0073   -0.0048    0.0170   -0.0000
       15 C1     *002      -0.0014    0.0012    0.0008   -0.0000   -0.0002   -0.0008   -0.0000   -0.0000   -0.0000   -0.0007
       16 C2     1s         0.0014   -0.0088    0.0270   -0.0000    0.0073   -0.0097    0.0000    0.0000    0.0000   -0.0217
       17 C2     2s        -0.0038    0.0186   -0.0544    0.0000   -0.0088    0.0234   -0.0000   -0.0000   -0.0000    0.0305
       18 C2     *s         0.0146   -0.0031   -0.0296    0.0000   -0.0384    0.0262   -0.0000    0.0000   -0.0000    0.1675
       19 C2     2px       -0.0209    0.2660   -0.0027    0.0000    0.2956   -0.0606    0.0000   -0.0000   -0.0000   -0.0433
       20 C2     *px       -0.0016    0.1126    0.0269    0.0000    0.1285   -0.0139   -0.0000    0.0000   -0.0000   -0.1455
       21 C2     2py       -0.1355    0.0788    0.0112    0.0000    0.0435    0.3686    0.0000    0.0000    0.0000   -0.0149
       22 C2     *py       -0.0388    0.0416    0.0148    0.0000    0.0387    0.1617   -0.0000    0.0000    0.0000   -0.0290
       23 C2     2pz       -0.0000    0.0000   -0.0000    0.1434    0.0000    0.0000   -0.3098   -0.2089    0.1541   -0.0000
       24 C2     *pz        0.0000    0.0000   -0.0000    0.0809    0.0000   -0.0000   -0.2564   -0.1889    0.3165   -0.0000
       25 C2     *200       0.0017   -0.0020   -0.0051   -0.0000    0.0003   -0.0122   -0.0000    0.0000    0.0000   -0.0052
       26 C2     *110      -0.0041   -0.0085   -0.0067   -0.0000   -0.0272   -0.0057   -0.0000    0.0000   -0.0000   -0.0133
       27 C2     *101       0.0000    0.0000   -0.0000    0.0113   -0.0000   -0.0000   -0.0067   -0.0178   -0.0216    0.0000
       28 C2     *020      -0.0018   -0.0007    0.0035   -0.0000   -0.0060    0.0101   -0.0000    0.0000    0.0000    0.0024
       29 C2     *011       0.0000   -0.0000   -0.0000    0.0040    0.0000   -0.0000   -0.0132    0.0145    0.0197    0.0000
       30 C2     *002       0.0006   -0.0002    0.0011    0.0000    0.0009   -0.0001   -0.0000    0.0000   -0.0000    0.0007
       31 C3     1s         0.0014   -0.0088   -0.0270   -0.0000   -0.0073   -0.0097   -0.0000    0.0000    0.0000   -0.0217
       32 C3     2s        -0.0038    0.0186    0.0544    0.0000    0.0088    0.0234    0.0000    0.0000    0.0000    0.0305
       33 C3     *s         0.0146   -0.0031    0.0296   -0.0000    0.0384    0.0262    0.0000   -0.0000    0.0000    0.1675
       34 C3     2px       -0.0209    0.2660    0.0028   -0.0000   -0.2956   -0.0607   -0.0000    0.0000    0.0000   -0.0433
       35 C3     *px       -0.0016    0.1126   -0.0269   -0.0000   -0.1285   -0.0139    0.0000   -0.0000   -0.0000   -0.1455
       36 C3     2py        0.1355   -0.0788    0.0112   -0.0000    0.0436   -0.3686    0.0000   -0.0000   -0.0000    0.0149
       37 C3     *py        0.0388   -0.0417    0.0148    0.0000    0.0387   -0.1617   -0.0000    0.0000    0.0000    0.0290
       38 C3     2pz        0.0000   -0.0000    0.0000    0.1434    0.0000   -0.0000   -0.3098    0.2089    0.1541    0.0000
       39 C3     *pz       -0.0000   -0.0000    0.0000    0.0809    0.0000   -0.0000   -0.2564    0.1889    0.3165    0.0000
       40 C3     *200       0.0017   -0.0020    0.0051    0.0000   -0.0003   -0.0122   -0.0000    0.0000   -0.0000   -0.0052
       41 C3     *110       0.0041    0.0085   -0.0067   -0.0000   -0.0272    0.0057    0.0000    0.0000   -0.0000    0.0133
       42 C3     *101       0.0000   -0.0000   -0.0000    0.0113    0.0000   -0.0000   -0.0067    0.0178   -0.0216   -0.0000
       43 C3     *020      -0.0018   -0.0007   -0.0035    0.0000    0.0060    0.0101   -0.0000    0.0000   -0.0000    0.0024
       44 C3     *011      -0.0000   -0.0000    0.0000   -0.0040   -0.0000    0.0000    0.0132    0.0145   -0.0197    0.0000
       45 C3     *002       0.0006   -0.0002   -0.0011   -0.0000   -0.0009   -0.0001    0.0000   -0.0000   -0.0000    0.0007
       46 C4     1s        -0.0618   -0.0051    0.0091    0.0000    0.0357    0.0023    0.0000    0.0000   -0.0000   -0.0180
       47 C4     2s         0.1225    0.0120   -0.0125   -0.0000   -0.0745   -0.0110   -0.0000   -0.0000   -0.0000    0.0135
       48 C4     *s         0.1619    0.0113   -0.0581   -0.0000   -0.1006    0.0100   -0.0000    0.0000    0.0000    0.4935
       49 C4     2px        0.0147   -0.2014    0.0115    0.0000    0.2320    0.1794   -0.0000   -0.0000    0.0000    0.0093
       50 C4     *px        0.0255   -0.0713   -0.0409    0.0000    0.0942    0.0868    0.0000    0.0000   -0.0000   -0.0802
       51 C4     2py        0.2455    0.0225   -0.3125   -0.0000    0.0666    0.0963   -0.0000   -0.0000   -0.0000    0.1156
       52 C4     *py        0.0799    0.0027   -0.1351   -0.0000    0.0308    0.0441    0.0000   -0.0000   -0.0000    0.1819
       53 C4     2pz        0.0000    0.0000   -0.0000    0.2181   -0.0000    0.0000   -0.0460    0.3415   -0.3079   -0.0000
       54 C4     *pz        0.0000    0.0000   -0.0000    0.1151   -0.0000    0.0000   -0.0469    0.3101   -0.6167   -0.0000
       55 C4     *200       0.0031    0.0061    0.0047    0.0000   -0.0021   -0.0048    0.0000    0.0000    0.0000    0.0038
       56 C4     *110       0.0152    0.0162   -0.0264   -0.0000   -0.0100    0.0133   -0.0000    0.0000   -0.0000   -0.0105
       57 C4     *101       0.0000    0.0000   -0.0000    0.0035    0.0000    0.0000    0.0268   -0.0105    0.0028   -0.0000
       58 C4     *020       0.0008   -0.0088   -0.0084    0.0000    0.0052    0.0091    0.0000    0.0000    0.0000   -0.0029
       59 C4     *011      -0.0000    0.0000    0.0000   -0.0188    0.0000    0.0000   -0.0073   -0.0048   -0.0170   -0.0000
       60 C4     *002      -0.0014    0.0012   -0.0008    0.0000    0.0002   -0.0008   -0.0000    0.0000    0.0000   -0.0007
       61 N5     1s         0.0318    0.0248    0.0000    0.0000    0.0000    0.0158   -0.0000   -0.0000   -0.0000   -0.0784
       62 N5     2s        -0.0675   -0.0626   -0.0000   -0.0000   -0.0000   -0.0315    0.0000    0.0000    0.0000    0.1021
       63 N5     *s        -0.1086   -0.0801   -0.0000   -0.0000   -0.0000   -0.0836    0.0000   -0.0000    0.0000    1.1725
       64 N5     2px        0.1937    0.2913    0.0000    0.0000    0.0000   -0.0135    0.0000   -0.0000    0.0000    0.1952
       65 N5     *px        0.1096    0.1816    0.0000   -0.0000    0.0000   -0.0076    0.0000   -0.0000    0.0000    0.7306
       66 N5     2py       -0.0000   -0.0000    0.3265    0.0000    0.1175    0.0000   -0.0000   -0.0000   -0.0000   -0.0000
       67 N5     *py       -0.0000   -0.0000    0.2192    0.0000    0.0787    0.0000    0.0000   -0.0000   -0.0000   -0.0001
       68 N5     2pz        0.0000   -0.0000   -0.0000    0.4143   -0.0000   -0.0000    0.3630   -0.0000    0.3032   -0.0000
       69 N5     *pz        0.0000    0.0000   -0.0000    0.2986   -0.0000   -0.0000    0.3540   -0.0000    0.5566   -0.0000
       70 N5     *200      -0.0000    0.0152   -0.0000    0.0000    0.0000   -0.0057   -0.0000   -0.0000   -0.0000   -0.0161
       71 N5     *110       0.0000   -0.0000   -0.0165    0.0000    0.0067    0.0000    0.0000    0.0000    0.0000    0.0000
       72 N5     *101      -0.0000   -0.0000   -0.0000   -0.0115    0.0000    0.0000    0.0038    0.0000    0.0184   -0.0000
       73 N5     *020       0.0030   -0.0093    0.0000   -0.0000   -0.0000    0.0059   -0.0000   -0.0000   -0.0000   -0.0071
       74 N5     *011       0.0000   -0.0000   -0.0000    0.0000    0.0000    0.0000   -0.0000    0.0270   -0.0000    0.0000
       75 N5     *002       0.0016   -0.0014   -0.0000   -0.0000    0.0000    0.0008    0.0000    0.0000   -0.0000   -0.0094
       76 H6     1s         0.1786   -0.0289    0.1955    0.0000   -0.0563    0.1141    0.0000    0.0000    0.0000   -0.0093
       77 H6     *s         0.0968   -0.0218    0.1414    0.0000   -0.0517    0.0997    0.0000   -0.0000    0.0000   -0.5030
       78 H7     1s         0.0472   -0.1503   -0.0355   -0.0000   -0.1868   -0.1059   -0.0000   -0.0000    0.0000   -0.0378
       79 H7     *s         0.0305   -0.1085   -0.0166   -0.0000   -0.1493   -0.0880   -0.0000    0.0000    0.0000   -0.3800
       80 H8     1s         0.0472   -0.1503    0.0355    0.0000    0.1868   -0.1059    0.0000   -0.0000   -0.0000   -0.0378
       81 H8     *s         0.0305   -0.1085    0.0166    0.0000    0.1493   -0.0880    0.0000   -0.0000   -0.0000   -0.3800
       82 H9     1s         0.1786   -0.0289   -0.1955   -0.0000    0.0563    0.1141   -0.0000   -0.0000    0.0000   -0.0093
       83 H9     *s         0.0968   -0.0218   -0.1414   -0.0000    0.0517    0.0997   -0.0000   -0.0000    0.0000   -0.5030
       84 H10    1s         0.0778    0.1681    0.0000    0.0000   -0.0000   -0.0317    0.0000   -0.0000   -0.0000   -0.0655
       85 H10    *s         0.0304    0.1054    0.0000    0.0000   -0.0000   -0.0217   -0.0000   -0.0000   -0.0000   -1.6449
 
          Orbital           21        22        23        24        25        26        27        28        29        30    
          Energy            0.2611    0.2887    0.3101    0.3202    0.3289    0.4171    0.4195    0.5037    0.5410    0.6731
          Occ. No.          0.0000    0.0000    0.0000    0.0000    0.0000    0.0000    0.0000    0.0000    0.0000    0.0000
 
        1 C1     1s         0.0000    0.0634    0.0581   -0.0535   -0.0101    0.0099   -0.0536    0.0676   -0.0598   -0.0625
        2 C1     2s        -0.0000   -0.0778   -0.0904    0.0774    0.0559   -0.0425    0.0836    0.0596    0.0508   -0.0410
        3 C1     *s         0.0000   -0.7887   -0.9111    0.6631   -0.6858   -0.1850    1.0853   -2.8661    2.5051    1.9329
        4 C1     2px       -0.0000   -0.0794   -0.0790    0.0452   -0.0418    0.1550    0.0305    0.1545    0.0960    0.2204
        5 C1     *px       -0.0000   -0.5371   -0.4445    0.2213   -0.1251    1.2797    0.5684    0.8762   -2.5360    0.8696
        6 C1     2py       -0.0000    0.0732    0.1899   -0.0584    0.0584    0.0947    0.1136   -0.0768    0.1146    0.1861
        7 C1     *py        0.0000    0.3843    1.1744   -0.6934   -0.3646    0.8610    0.4035   -2.0740    0.9321    2.0183
        8 C1     2pz       -0.2013    0.0000    0.0000    0.0000    0.0000    0.0000    0.0000   -0.0000    0.0000    0.0000
        9 C1     *pz       -0.4871    0.0000    0.0000    0.0000    0.0000   -0.0000   -0.0000   -0.0000   -0.0000   -0.0000
       10 C1     *200      -0.0000   -0.0003    0.0043   -0.0015   -0.0078    0.0118   -0.0034   -0.0075    0.0004   -0.0076
       11 C1     *110       0.0000   -0.0029   -0.0023   -0.0163    0.0017   -0.0110   -0.0274   -0.0055    0.0023    0.0025
       12 C1     *101      -0.0290   -0.0000   -0.0000    0.0000    0.0000    0.0000   -0.0000   -0.0000   -0.0000    0.0000
       13 C1     *020      -0.0000    0.0099   -0.0010   -0.0044   -0.0014   -0.0109    0.0052   -0.0017    0.0143   -0.0061
       14 C1     *011       0.0025    0.0000    0.0000    0.0000   -0.0000   -0.0000    0.0000    0.0000    0.0000   -0.0000
       15 C1     *002      -0.0000   -0.0009   -0.0017    0.0004    0.0023    0.0013    0.0037    0.0015   -0.0011    0.0091
       16 C2     1s         0.0000    0.0223   -0.0260    0.0488    0.0789   -0.0400   -0.0456   -0.0479    0.0588    0.0730
       17 C2     2s        -0.0000   -0.0034    0.0808   -0.0592   -0.1368    0.0249    0.0219    0.0566    0.0539   -0.0547
       18 C2     *s        -0.0000   -0.7456   -0.4505   -0.9325   -0.7331    1.1336    1.4531    1.7415   -3.1918   -2.9768
       19 C2     2px       -0.0000    0.1056    0.0466    0.1217    0.1341    0.1134   -0.0028   -0.0015   -0.1693   -0.0280
       20 C2     *px        0.0000    0.2001   -0.2657    0.5728    1.3029    0.5392    0.0006    1.6436   -2.7497   -0.5464
       21 C2     2py        0.0000    0.0761    0.0230    0.1151    0.0619   -0.0707    0.1714    0.1337    0.0932   -0.1161
       22 C2     *py        0.0000    0.2124   -0.4376    0.6630    0.7319   -0.5359    1.4580   -0.1930   -0.0797   -3.1070
       23 C2     2pz        0.3211   -0.0000   -0.0000   -0.0000    0.0000    0.0000   -0.0000    0.0000    0.0000   -0.0000
       24 C2     *pz        0.7739   -0.0000   -0.0000   -0.0000    0.0000    0.0000   -0.0000    0.0000    0.0000   -0.0000
       25 C2     *200       0.0000   -0.0005    0.0022    0.0033    0.0034   -0.0019    0.0136   -0.0019   -0.0105   -0.0116
       26 C2     *110       0.0000    0.0119    0.0008    0.0027   -0.0067    0.0231    0.0075    0.0141    0.0185    0.0130
       27 C2     *101      -0.0075   -0.0000    0.0000    0.0000    0.0000    0.0000   -0.0000    0.0000    0.0000   -0.0000
       28 C2     *020       0.0000    0.0034   -0.0086   -0.0017    0.0056   -0.0013   -0.0097    0.0225   -0.0090   -0.0076
       29 C2     *011      -0.0168    0.0000   -0.0000   -0.0000   -0.0000    0.0000    0.0000   -0.0000    0.0000   -0.0000
       30 C2     *002       0.0000   -0.0000    0.0021    0.0004   -0.0019    0.0009   -0.0016   -0.0060    0.0091    0.0006
       31 C3     1s         0.0000    0.0223    0.0260    0.0488   -0.0789   -0.0400    0.0456   -0.0479   -0.0588   -0.0730
       32 C3     2s        -0.0000   -0.0034   -0.0808   -0.0592    0.1368    0.0249   -0.0219    0.0566   -0.0539    0.0547
       33 C3     *s        -0.0000   -0.7456    0.4505   -0.9325    0.7331    1.1335   -1.4532    1.7415    3.1918    2.9768
       34 C3     2px        0.0000    0.1056   -0.0466    0.1216   -0.1340    0.1135    0.0028   -0.0016    0.1693    0.0280
       35 C3     *px        0.0000    0.2000    0.2656    0.5727   -1.3028    0.5393   -0.0003    1.6436    2.7497    0.5459
       36 C3     2py        0.0000   -0.0761    0.0230   -0.1151    0.0620    0.0707    0.1714   -0.1337    0.0932   -0.1161
       37 C3     *py       -0.0000   -0.2124   -0.4377   -0.6631    0.7321    0.5358    1.4580    0.1928   -0.0801   -3.1071
       38 C3     2pz       -0.3211    0.0000    0.0000    0.0000   -0.0000   -0.0000    0.0000   -0.0000    0.0000    0.0000
       39 C3     *pz       -0.7739    0.0000    0.0000    0.0000   -0.0000   -0.0000   -0.0000    0.0000   -0.0000   -0.0000
       40 C3     *200      -0.0000   -0.0005   -0.0022    0.0033   -0.0034   -0.0019   -0.0135   -0.0019    0.0105    0.0116
       41 C3     *110       0.0000   -0.0119    0.0008   -0.0027   -0.0067   -0.0231    0.0075   -0.0141    0.0185    0.0130
       42 C3     *101       0.0075   -0.0000   -0.0000   -0.0000    0.0000   -0.0000    0.0000   -0.0000   -0.0000    0.0000
       43 C3     *020      -0.0000    0.0034    0.0086   -0.0017   -0.0056   -0.0013    0.0097    0.0225    0.0090    0.0076
       44 C3     *011      -0.0168    0.0000   -0.0000    0.0000    0.0000   -0.0000    0.0000   -0.0000    0.0000   -0.0000
       45 C3     *002       0.0000   -0.0000   -0.0021    0.0004    0.0019    0.0009    0.0016   -0.0060   -0.0091   -0.0006
       46 C4     1s         0.0000    0.0634   -0.0581   -0.0535    0.0101    0.0099    0.0536    0.0676    0.0598    0.0625
       47 C4     2s         0.0000   -0.0778    0.0904    0.0774   -0.0559   -0.0425   -0.0836    0.0596   -0.0508    0.0410
       48 C4     *s        -0.0000   -0.7887    0.9111    0.6631    0.6858   -0.1850   -1.0853   -2.8661   -2.5051   -1.9329
       49 C4     2px       -0.0000   -0.0794    0.0791    0.0452    0.0418    0.1550   -0.0305    0.1545   -0.0960   -0.2204
       50 C4     *px       -0.0000   -0.5372    0.4447    0.2215    0.1250    1.2796   -0.5684    0.8765    2.5361   -0.8693
       51 C4     2py       -0.0000   -0.0732    0.1899    0.0583    0.0584   -0.0947    0.1136    0.0768    0.1146    0.1862
       52 C4     *py        0.0000   -0.3842    1.1743    0.6934   -0.3646   -0.8612    0.4036    2.0739    0.9317    2.0185
       53 C4     2pz        0.2013   -0.0000   -0.0000   -0.0000    0.0000    0.0000   -0.0000   -0.0000    0.0000    0.0000
       54 C4     *pz        0.4871   -0.0000   -0.0000   -0.0000    0.0000    0.0000    0.0000    0.0000   -0.0000    0.0000
       55 C4     *200      -0.0000   -0.0003   -0.0043   -0.0015    0.0078    0.0118    0.0034   -0.0075   -0.0004    0.0076
       56 C4     *110       0.0000    0.0029   -0.0023    0.0163    0.0017    0.0110   -0.0274    0.0055    0.0023    0.0025
       57 C4     *101       0.0290   -0.0000    0.0000   -0.0000   -0.0000    0.0000    0.0000   -0.0000   -0.0000   -0.0000
       58 C4     *020      -0.0000    0.0099    0.0010   -0.0044    0.0014   -0.0109   -0.0052   -0.0017   -0.0143    0.0061
       59 C4     *011       0.0025    0.0000   -0.0000    0.0000    0.0000   -0.0000    0.0000    0.0000   -0.0000   -0.0000
       60 C4     *002       0.0000   -0.0009    0.0017    0.0004   -0.0023    0.0013   -0.0037    0.0015    0.0011   -0.0091
       61 N5     1s        -0.0000   -0.0653    0.0000    0.0280   -0.0000    0.0711   -0.0000   -0.0723   -0.0000    0.0000
       62 N5     2s         0.0000    0.0822    0.0000   -0.0984    0.0000   -0.0572    0.0000   -0.0025   -0.0000   -0.0000
       63 N5     *s         0.0000    1.0382   -0.0000    0.1186   -0.0000   -1.8506    0.0000    2.5727    0.0000    0.0000
       64 N5     2px        0.0000    0.0862   -0.0000    0.0954   -0.0000    0.1768    0.0000   -0.0949   -0.0000    0.0000
       65 N5     *px        0.0000    0.5316   -0.0000   -0.0061   -0.0000    0.9377    0.0001   -1.7251   -0.0000    0.0002
       66 N5     2py       -0.0000   -0.0000   -0.0371   -0.0000   -0.0034   -0.0000    0.2709    0.0000   -0.1350    0.3007
       67 N5     *py        0.0000   -0.0000   -0.1274   -0.0000   -0.2838   -0.0001    1.1510    0.0001   -0.2036    2.1308
       68 N5     2pz       -0.0000   -0.0000    0.0000    0.0000   -0.0000   -0.0000    0.0000    0.0000   -0.0000    0.0000
       69 N5     *pz       -0.0000   -0.0000    0.0000   -0.0000   -0.0000    0.0000   -0.0000    0.0000   -0.0000   -0.0000
       70 N5     *200      -0.0000    0.0038   -0.0000   -0.0002    0.0000   -0.0058    0.0000   -0.0061    0.0000    0.0000
       71 N5     *110      -0.0000   -0.0000   -0.0042    0.0000    0.0212    0.0000    0.0211    0.0000    0.0609    0.0412
       72 N5     *101       0.0000   -0.0000    0.0000    0.0000   -0.0000    0.0000    0.0000    0.0000    0.0000    0.0000
       73 N5     *020      -0.0000   -0.0178    0.0000    0.0024   -0.0000    0.0144   -0.0000    0.0117   -0.0000   -0.0000
       74 N5     *011       0.0315   -0.0000   -0.0000   -0.0000   -0.0000    0.0000    0.0000    0.0000    0.0000   -0.0000
       75 N5     *002      -0.0000   -0.0114    0.0000   -0.0051    0.0000    0.0146   -0.0000   -0.0299   -0.0000   -0.0000
       76 H6     1s         0.0000    0.0414   -0.0000   -0.0001   -0.0196   -0.0318    0.0753    0.0368    0.0354   -0.1053
       77 H6     *s         0.0000    1.1457    1.8518   -1.0948    0.0351    0.2725   -0.1191   -0.9943    0.7543    0.5448
       78 H7     1s         0.0000    0.0076   -0.0122    0.0038    0.0020    0.0780    0.0492    0.0317    0.0342    0.0577
       79 H7     *s         0.0000    0.7433   -0.2637    1.4328    1.9256   -0.0606    0.4548    0.4745   -0.8982   -0.9127
       80 H8     1s         0.0000    0.0076    0.0122    0.0038   -0.0020    0.0780   -0.0492    0.0317   -0.0342   -0.0577
       81 H8     *s         0.0000    0.7433    0.2637    1.4327   -1.9256   -0.0606   -0.4548    0.4745    0.8982    0.9127
       82 H9     1s        -0.0000    0.0414    0.0000   -0.0001    0.0196   -0.0318   -0.0753    0.0368   -0.0354    0.1053
       83 H9     *s        -0.0000    1.1457   -1.8518   -1.0948   -0.0351    0.2725    0.1191   -0.9943   -0.7543   -0.5448
       84 H10    1s        -0.0000   -0.0006   -0.0000    0.0284   -0.0000   -0.0887    0.0000   -0.0031    0.0000    0.0000
       85 H10    *s        -0.0000   -1.0383    0.0000   -0.0546    0.0000   -0.7309    0.0000    0.7271    0.0000    0.0000
--
 
 
++    Molecular charges:
      ------------------
 
      Mulliken charges per centre and basis function type
      ---------------------------------------------------
 
                C1      C2      C3      C4      N5      H6      H7      H8      H9      H10   
      1s       1.9964  1.9965  1.9965  1.9964  1.9955  0.5211  0.5205  0.5205  0.5211  0.4911
      2s       0.6639  0.6563  0.6563  0.6639  0.7516  0.0000  0.0000  0.0000  0.0000  0.0000
      2px      0.7170  0.7233  0.7233  0.7170  0.7972  0.0000  0.0000  0.0000  0.0000  0.0000
      2pz      0.5796  0.5705  0.5705  0.5796  0.9097  0.0000  0.0000  0.0000  0.0000  0.0000
      2py      0.6777  0.7132  0.7132  0.6777  0.7968  0.0000  0.0000  0.0000  0.0000  0.0000
      *s       0.4185  0.5008  0.5008  0.4185  0.8022  0.2733  0.2854  0.2854  0.2733  0.1155
      *px      0.1794  0.2761  0.2761  0.1794  0.4672  0.0000  0.0000  0.0000  0.0000  0.0000
      *pz      0.4807  0.5170  0.5170  0.4807  0.7211  0.0000  0.0000  0.0000  0.0000  0.0000
      *py      0.1911  0.2498  0.2498  0.1910  0.3931  0.0000  0.0000  0.0000  0.0000  0.0000
      *200     0.0196  0.0295  0.0295  0.0196  0.0416  0.0000  0.0000  0.0000  0.0000  0.0000
      *110     0.0252  0.0148  0.0148  0.0252  0.0118  0.0000  0.0000  0.0000  0.0000  0.0000
      *101     0.0118  0.0060  0.0060  0.0118  0.0025  0.0000  0.0000  0.0000  0.0000  0.0000
      *020     0.0337  0.0225  0.0225  0.0337  0.0169  0.0000  0.0000  0.0000  0.0000  0.0000
      *011     0.0060  0.0061  0.0061  0.0060  0.0113  0.0000  0.0000  0.0000  0.0000  0.0000
      *002    -0.0196 -0.0181 -0.0181 -0.0196 -0.0162  0.0000  0.0000  0.0000  0.0000  0.0000
      Total    5.9812  6.2642  6.2642  5.9812  7.7022  0.7944  0.8059  0.8059  0.7944  0.6066
 
      N-E      0.0188 -0.2642 -0.2642  0.0188 -0.7022  0.2056  0.1941  0.1941  0.2056  0.3934
 
      Total electronic charge=   36.000000
 
      Total            charge=   -0.000000
--
 
 
++    Molecular properties:
      ---------------------
 
      Charge (e):
                      =   -0.0000
      Dipole Moment (debye):
      Origin of the operator (angstrom)=   -0.0083   -0.0000    0.0000
                   X=  1.9162E+00               Y= -1.5427E-04               Z= -3.6128E-16           Total=  1.9162E+00
      Quadrupole Moment (debye*angstrom):
      Origin of the operator (angstrom)=   -0.0083   -0.0000    0.0000
                  XX= -2.3289E+01              XY= -2.2407E-04              XZ= -7.5203E-15              YY= -2.6108E+01
                  YZ= -6.1945E-15              ZZ= -3.3911E+01
      In traceless form (debye*angstrom)
                  XX=  6.7202E+00              XY= -3.3610E-04              XZ= -1.1280E-14              YY=  2.4922E+00
                  YZ= -9.2918E-15              ZZ= -9.2124E+00
--
 
 
      Input file to MOLDEN was generated!
 
 ###############################################################################
 ###############################################################################
 ###                                                                         ###
 ###                                                                         ###
 ###    WARNING: RunFile label nBas                                          ###
 ###    was used       74 times                                              ###
 ###                                                                         ###
 ###                                                                         ###
 ###############################################################################
 ###############################################################################
--- Stop Module: scf at Sat Jul 18 01:33:20 2026 /rc=_RC_ALL_IS_WELL_ ---
*** files: nc4h5_project.scf.molden nc4h5_project.ScfOrb nc4h5_project.scf.h5 xmldump
    saved to directory /vscratch/grp-cyberwksp21/sbakenhaster/wed_7_8/openmolcas_pyspawn/Tutorials_OpenMolcas/03_S1_Optimization_CASPT2/nc4h5_project
--- Module scf spent 2 seconds ---

*** symbolic link created: INPORB -> nc4h5_project.ScfOrb
--- Start Module: rasscf at Sat Jul 18 01:33:20 2026 ---
 
()()()()()()()()()()()()()()()()()()()()()()()()()()()()()()()()()()()()()()()()()()()()()()()()()()

                                              &RASSCF

                       only a single process is used, running in SERIAL mode
                       available to each process: 2.0 GB of memory, 1 thread?
                                            pid: 1523716
()()()()()()()()()()()()()()()()()()()()()()()()()()()()()()()()()()()()()()()()()()()()()()()()()()
 
 
      Header of the ONEINT file:
      --------------------------
      
      Integrals generated by Gateway/Seward, Sat Jul 18 01:33:16 2026
 
 
      OrdInt status: non-squared
 
 
      Cartesian coordinates in angstrom:
      -----------------------------------------------------
      No.  Label        X            Y            Z        
      -----------------------------------------------------
       1   C1         0.32355191  -1.12266426   0.00000000
       2   C2        -0.99130231  -0.71278622   0.00000000
       3   C3        -0.99118691   0.71293438   0.00000000
       4   C4         0.32373319   1.12260006   0.00000000
       5   N5         1.11032681  -0.00009535   0.00000000
       6   H6         0.76085922  -2.11464676   0.00000000
       7   H7        -1.85945978  -1.36396975   0.00000000
       8   H8        -1.85923956   1.36425724   0.00000000
       9   H9         0.76120017   2.11451205   0.00000000
      10   H10        2.11687035  -0.00017622   0.00000000
      -----------------------------------------------------
      Nuclear repulsion energy =  160.88522231
 
++    Wave function specifications:
      -----------------------------
 
      Number of closed shell electrons          32
      Number of electrons in active shells       2
      Max number of holes in RAS1 space          0
      Max nr of electrons in RAS3 space          0
      Number of inactive orbitals               16
      Number of active orbitals                  2
      Number of secondary orbitals              67
      Spin quantum number                      0.0
      State symmetry                             1
--
 
++    Orbital specifications:
      -----------------------
 
      Symmetry species                           1
                                                 a
      Frozen orbitals                            0
      Inactive orbitals                         16
      Active orbitals                            2
      RAS1 orbitals                              0
      RAS2 orbitals                              2
      RAS3 orbitals                              0
      Secondary orbitals                        67
      Deleted orbitals                           0
      Number of basis functions                 85
--
 
++    CI expansion specifications:
      ----------------------------
 
      Number of CSFs                             3
      Number of spin combinations                3
      Number of determinants                     4
      Number of root(s) required                 3
      Root chosen for geometry opt.              3
      CI roots used                              1     2     3
      weights                                0.333 0.333 0.333
      highest root included in the CI            3
      max. size of the explicit Hamiltonian      3
--
 
++    Optimization specifications:
      ----------------------------
 
      RASSCF algorithm: LK RI/DF
      Maximum number of macro iterations       200
      Maximum number of SX iterations          100
      Threshold for RASSCF energy            1.000E-08
      Threshold for max MO rotation          1.000E-01
      Threshold for max BLB element          1.000E-04
      Level shift parameter                  5.000E-01
      Make Quasi-Newton update
--
 
      Orbitals from runfile: scf orbitals
      The MO-coefficients are taken from scf orbitals on runfile
 
      Total molecular charge    2.00
 
      ************************************************************************************************************************
      *                                                                                                                      *
      *                                            Wave function control section                                             *
      *                                                                                                                      *
      ************************************************************************************************************************
 
 
                                         RASSCF iterations: Energy and convergence statistics
                                         ----------------------------------------------------
 
      Iter CI   SX   CI       RASSCF       Energy    max ROT     max BLB   max BLB  Level Ln srch  Step   QN   Walltime
          iter iter root      energy       change     param      element    value   shift minimum  type update hh:mm:ss
 Nr of preliminary CI iterations:   1
        1   1    7    0  -207.82783625    0.00E+00   6.04E-02   13  23 1  1.51E-01*  0.14   0.00    SX    NO    0:00:00
        2   1    6    0  -207.93324442   -1.05E-01*  1.72E-02   14  32 1  3.01E-02*  0.14   0.00    SX    NO    0:00:00
        3   1    6    0  -207.93889266   -5.65E-03* -4.86E-03   13  23 1  1.11E-02*  0.14   0.00    SX    NO    0:00:00
        4   1    5    0  -207.93947932   -5.87E-04* -4.43E-03   14  41 1 -4.57E-03*  0.15   0.00    SX    NO    0:00:00
        5   1    5    0  -207.93956429   -8.50E-05* -2.73E-03   13  27 1 -1.26E-03*  0.15   1.19    QN   YES    0:00:00
        6   1    4    0  -207.93958593   -2.16E-05* -1.40E-03   14  17 1  5.82E-04*  0.15   1.04    QN   YES    0:00:00
        7   1    4    0  -207.93958796   -2.04E-06*  5.70E-04   15  25 1  2.54E-04*  0.15   1.13    QN   YES    0:00:00
        8   1    4    0  -207.93958856   -5.91E-07*  1.77E-04   15  25 1  7.99E-05   0.15   1.33    QN   YES    0:00:00
        9   1    3    0  -207.93958861   -5.54E-08* -1.46E-05   16  28 1 -1.33E-05   0.15   1.03    QN   YES    0:00:00
       10   1    3    0  -207.93958861   -1.17E-09  -4.38E-06   15  42 1 -4.62E-06   0.15   1.17    QN   YES    0:00:00
      Convergence after 10 iterations
       11   1    3    0  -207.93958861   -1.14E-10  -4.38E-06   14  32 1  7.09E-07   0.15   1.17    QN   YES    0:00:00
 
      ************************************************************************************************************************
                                                      Wave function printout:
                       occupation of active orbitals, and spin coupling of open shells (u,d: Spin up or down)
      ************************************************************************************************************************
 
      Note: transformation to natural orbitals
      has been made, which may change the order of the CSFs.
 
      printout of CI-coefficients larger than  0.05 for root  1
      energy=    -207.987473
      conf/sym  11     Coeff  Weight
             1  20   0.96371 0.92874
             3  02  -0.26694 0.07126
 
      printout of CI-coefficients larger than  0.05 for root  2
      energy=    -207.959233
      conf/sym  11     Coeff  Weight
             2  ud   1.00000 1.00000
 
      printout of CI-coefficients larger than  0.05 for root  3
      energy=    -207.872060
      conf/sym  11     Coeff  Weight
             1  20   0.26694 0.07126
             3  02   0.96371 0.92874
 
      Natural orbitals and occupation numbers for root  1
      sym 1:   1.857484   0.142516
 
      Natural orbitals and occupation numbers for root  2
      sym 1:   1.000001   0.999999
 
      Natural orbitals and occupation numbers for root  3
      sym 1:   0.142516   1.857484
 
      ************************************************************************************************************************
      *                                                                                                                      *
      *                                                    Final results                                                     *
      *                                                                                                                      *
      ************************************************************************************************************************
 
 
++    Final optimization conditions:
      ------------------------------
 
      Average CI energy                            -207.93958861
      RASSCF energy for state  3                   -207.87206042
      Super-CI energy                                -0.00000000
      RASSCF energy change                           -0.00000000
      Max change in MO coefficients               6.935E-06
      Max non-diagonal density matrix element    -4.377E-06
      Maximum BLB matrix element                  7.089E-07
      (orbital pair  14,  32 in symmetry   1)
      Norm of electronic gradient            2.409E-01
--
 
 
      Final state energy(ies):
      ------------------------
 
::    RASSCF root number  1 Total energy:   -207.98747274
::    RASSCF root number  2 Total energy:   -207.95923267
::    RASSCF root number  3 Total energy:   -207.87206042
 
++    Molecular orbitals:
      -------------------
 
      Pseudonatural active orbitals and approximate occupation numbers
 
 
 
 
      Molecular orbitals for symmetry species 1: a  
 
 
      Orbital                 1         2         3         4         5         6         7         8         9        10
      Energy           -16.1744  -11.7965  -11.7964  -11.7691  -11.7681   -1.8322   -1.5725   -1.4998   -1.3070   -1.2845
      Occ. No.           2.0000    2.0000    2.0000    2.0000    2.0000    2.0000    2.0000    2.0000    2.0000    2.0000
 
     1 C1     1s         0.0000   -0.7056    0.7022   -0.0165    0.0162   -0.0862    0.0306    0.1340    0.0654    0.0297
     2 C1     2s         0.0002   -0.0195    0.0188   -0.0006    0.0004    0.1710   -0.0619   -0.2820   -0.1368   -0.0636
     3 C1     *s         0.0021    0.0091   -0.0043    0.0046   -0.0053    0.0150   -0.0345   -0.1839   -0.0963   -0.0206
     4 C1     2px        0.0002   -0.0001    0.0002    0.0002   -0.0001    0.0218    0.1433    0.0296    0.0103   -0.2465
     5 C1     *px       -0.0002   -0.0023   -0.0003   -0.0014    0.0015    0.0033    0.0097    0.0208   -0.0030   -0.0357
     6 C1     2py        0.0002   -0.0011    0.0012   -0.0001    0.0002    0.1035    0.0026   -0.0338   -0.0420   -0.0354
     7 C1     *py        0.0013    0.0026    0.0016    0.0018   -0.0015   -0.0313   -0.0045    0.0069    0.0168    0.0260
     8 C1     2pz       -0.0000   -0.0000   -0.0000    0.0000    0.0000   -0.0000   -0.0000   -0.0000    0.0000    0.0000
     9 C1     *pz        0.0000   -0.0000    0.0000   -0.0000    0.0000   -0.0000   -0.0000   -0.0000   -0.0000    0.0000
    10 C1     *200      -0.0001    0.0006   -0.0006   -0.0002    0.0002    0.0024   -0.0041   -0.0077    0.0038    0.0036
    11 C1     *110      -0.0000    0.0000    0.0000    0.0001   -0.0002    0.0082    0.0180    0.0022    0.0025   -0.0144
    12 C1     *101       0.0000   -0.0000   -0.0000   -0.0000    0.0000   -0.0000   -0.0000   -0.0000   -0.0000    0.0000
    13 C1     *020      -0.0001    0.0006   -0.0004   -0.0001    0.0002    0.0086    0.0021   -0.0038   -0.0087   -0.0081
    14 C1     *011       0.0000   -0.0000   -0.0000   -0.0000    0.0000   -0.0000   -0.0000   -0.0000    0.0000    0.0000
    15 C1     *002      -0.0000    0.0010   -0.0011   -0.0000    0.0000   -0.0060    0.0016    0.0071    0.0039    0.0025
    16 C2     1s         0.0000   -0.0158    0.0161    0.7038   -0.7040   -0.0486    0.1270    0.0731   -0.0706   -0.0954
    17 C2     2s        -0.0000   -0.0004    0.0003    0.0196   -0.0196    0.0928   -0.2572   -0.1521    0.1505    0.2005
    18 C2     *s        -0.0008   -0.0053    0.0009   -0.0069    0.0145    0.0600   -0.1689   -0.1052    0.1427    0.1800
    19 C2     2px       -0.0001    0.0001   -0.0002    0.0006   -0.0008    0.0557   -0.0518   -0.0910   -0.1586    0.0069
    20 C2     *px       -0.0005   -0.0024    0.0001   -0.0019    0.0031    0.0204   -0.0121    0.0010   -0.0474   -0.0266
    21 C2     2py        0.0001    0.0000    0.0001    0.0004   -0.0005    0.0238   -0.0770    0.0769    0.0892   -0.1235
    22 C2     *py       -0.0002   -0.0001   -0.0005   -0.0002    0.0032    0.0104   -0.0100   -0.0009    0.0068   -0.0604
    23 C2     2pz       -0.0000    0.0000    0.0000    0.0000    0.0000    0.0000   -0.0000   -0.0000   -0.0000   -0.0000
    24 C2     *pz       -0.0000    0.0000   -0.0000   -0.0000   -0.0000    0.0000   -0.0000   -0.0000   -0.0000   -0.0000
    25 C2     *200       0.0000    0.0002   -0.0002   -0.0007    0.0004    0.0046   -0.0040   -0.0094   -0.0032    0.0081
    26 C2     *110       0.0000    0.0001    0.0001    0.0000   -0.0001    0.0015   -0.0041    0.0041    0.0060    0.0038
    27 C2     *101       0.0000   -0.0000   -0.0000    0.0000   -0.0000   -0.0000   -0.0000    0.0000   -0.0000   -0.0000
    28 C2     *020       0.0000    0.0002   -0.0001   -0.0009    0.0004    0.0015   -0.0087    0.0039    0.0098   -0.0019
    29 C2     *011      -0.0000    0.0000   -0.0000    0.0000   -0.0000    0.0000    0.0000    0.0000    0.0000   -0.0000
    30 C2     *002       0.0000    0.0001   -0.0001   -0.0011    0.0010   -0.0034    0.0071    0.0035   -0.0025   -0.0039
    31 C3     1s         0.0000    0.0157    0.0161    0.7037    0.7041   -0.0486    0.1270   -0.0731   -0.0706    0.0954
    32 C3     2s        -0.0000    0.0004    0.0003    0.0196    0.0196    0.0928   -0.2572    0.1521    0.1505   -0.2005
    33 C3     *s        -0.0008    0.0053    0.0009   -0.0069   -0.0145    0.0600   -0.1689    0.1052    0.1427   -0.1800
    34 C3     2px       -0.0001   -0.0001   -0.0002    0.0006    0.0008    0.0557   -0.0518    0.0910   -0.1587   -0.0070
    35 C3     *px       -0.0005    0.0024    0.0001   -0.0019   -0.0031    0.0204   -0.0121   -0.0010   -0.0474    0.0266
    36 C3     2py       -0.0001    0.0000   -0.0001   -0.0004   -0.0005   -0.0238    0.0770    0.0768   -0.0892   -0.1235
    37 C3     *py        0.0002   -0.0001    0.0005    0.0002    0.0032   -0.0104    0.0100   -0.0009   -0.0068   -0.0604
    38 C3     2pz       -0.0000    0.0000   -0.0000   -0.0000    0.0000    0.0000   -0.0000   -0.0000    0.0000   -0.0000
    39 C3     *pz        0.0000   -0.0000    0.0000    0.0000   -0.0000   -0.0000   -0.0000   -0.0000    0.0000   -0.0000
    40 C3     *200       0.0000   -0.0002   -0.0002   -0.0007   -0.0004    0.0046   -0.0040    0.0094   -0.0032   -0.0081
    41 C3     *110      -0.0000    0.0001   -0.0001   -0.0000   -0.0001   -0.0015    0.0040    0.0041   -0.0060    0.0039
    42 C3     *101       0.0000   -0.0000    0.0000    0.0000   -0.0000   -0.0000    0.0000    0.0000    0.0000    0.0000
    43 C3     *020       0.0000   -0.0002   -0.0001   -0.0009   -0.0004    0.0015   -0.0087   -0.0039    0.0098    0.0019
    44 C3     *011       0.0000    0.0000    0.0000   -0.0000    0.0000   -0.0000   -0.0000    0.0000   -0.0000   -0.0000
    45 C3     *002       0.0000   -0.0001   -0.0001   -0.0011   -0.0010   -0.0034    0.0071   -0.0035   -0.0025    0.0039
    46 C4     1s         0.0000    0.7022    0.7055   -0.0165   -0.0162   -0.0862    0.0306   -0.1340    0.0654   -0.0297
    47 C4     2s         0.0002    0.0194    0.0189   -0.0006   -0.0004    0.1710   -0.0619    0.2820   -0.1368    0.0636
    48 C4     *s         0.0021   -0.0091   -0.0043    0.0046    0.0053    0.0150   -0.0345    0.1839   -0.0963    0.0206
    49 C4     2px        0.0002    0.0001    0.0002    0.0002    0.0001    0.0218    0.1433   -0.0296    0.0103    0.2465
    50 C4     *px       -0.0002    0.0023   -0.0003   -0.0014   -0.0015    0.0033    0.0097   -0.0208   -0.0030    0.0357
    51 C4     2py       -0.0002   -0.0011   -0.0012    0.0001    0.0002   -0.1035   -0.0026   -0.0338    0.0420   -0.0355
    52 C4     *py       -0.0013    0.0026   -0.0016   -0.0018   -0.0015    0.0313    0.0045    0.0069   -0.0168    0.0260
    53 C4     2pz        0.0000    0.0000    0.0000   -0.0000   -0.0000    0.0000   -0.0000   -0.0000    0.0000    0.0000
    54 C4     *pz       -0.0000   -0.0000   -0.0000    0.0000    0.0000    0.0000   -0.0000    0.0000   -0.0000   -0.0000
    55 C4     *200      -0.0001   -0.0006   -0.0006   -0.0002   -0.0002    0.0024   -0.0041    0.0077    0.0038   -0.0036
    56 C4     *110       0.0000    0.0000   -0.0000   -0.0001   -0.0002   -0.0082   -0.0180    0.0022   -0.0025   -0.0144
    57 C4     *101      -0.0000    0.0000   -0.0000    0.0000   -0.0000    0.0000    0.0000    0.0000    0.0000   -0.0000
    58 C4     *020      -0.0001   -0.0006   -0.0004   -0.0001   -0.0002    0.0086    0.0021    0.0038   -0.0087    0.0082
    59 C4     *011       0.0000    0.0000    0.0000    0.0000   -0.0000   -0.0000    0.0000   -0.0000   -0.0000    0.0000
    60 C4     *002      -0.0000   -0.0010   -0.0011   -0.0000   -0.0000   -0.0060    0.0016   -0.0071    0.0039   -0.0025
    61 N5     1s         0.9950    0.0000   -0.0004    0.0001    0.0000   -0.1680   -0.1055    0.0000   -0.0442    0.0000
    62 N5     2s         0.0250   -0.0000    0.0007    0.0002    0.0000    0.3557    0.2401   -0.0000    0.1034   -0.0000
    63 N5     *s        -0.0037    0.0000   -0.0010   -0.0029   -0.0000    0.3714    0.2572   -0.0000    0.1367   -0.0000
    64 N5     2px       -0.0004    0.0000   -0.0001   -0.0001   -0.0000   -0.0737    0.0949    0.0000    0.3615    0.0000
    65 N5     *px        0.0015   -0.0000    0.0030    0.0011    0.0000   -0.0660    0.0520    0.0000    0.2172    0.0000
    66 N5     2py        0.0000    0.0001    0.0000    0.0000    0.0000    0.0000   -0.0000    0.2270   -0.0000    0.3193
    67 N5     *py       -0.0000   -0.0004   -0.0000   -0.0000   -0.0005    0.0000   -0.0000    0.1003   -0.0000    0.1725
[...]
VJAIM    1  Mu1.0001  Se1.027 In1.016 In1.010       1.52103212     -0.04779612      0.03039042     -0.00145254
VJAIM    1  Mu1.0001  Se1.028 In1.016 In1.012       1.45319399      0.04594419     -0.03089547     -0.00141947
VJAIM    1  Mu1.0001  Se1.033 In1.016 In1.012       1.73890728      0.04832599     -0.02722095     -0.00131548
VJAIM    1  Mu1.0001  Se1.027 In1.016 In1.013       1.33462345     -0.03983623      0.02868320     -0.00114263
VJAIM    1  Mu1.0001  Se1.025 In1.016 In1.015       1.28572688     -0.03752132      0.02852665     -0.00107036
BVATP    1  Mu1.0001  Se1.019 Se1.019               0.71435052      0.07962542     -0.09958472     -0.00792948
BVATP    1  Mu1.0001  Se1.020 Se1.020               0.81205996      0.05811255     -0.06479709     -0.00376552
BVATP    1  Mu1.0001  Se1.032 Se1.019               1.29454974     -0.04051781      0.03029062     -0.00122731
BJATP    1  Mu1.0001  In1.016 Se1.020 Se1.019       1.14448134     -0.04922437      0.04072206     -0.00200452
BJATM    1  Mu1.0001  In1.015 Se1.025 Se1.020       1.36652998     -0.03795774      0.02678466     -0.00101669
BJATM    1  Mu1.0001  In1.013 Se1.034 Se1.019       1.76490942      0.05547220     -0.03082437     -0.00170990
BJAIP    1  Se1.019 In1.016 Se1.019 In1.016         1.47690272      0.05471610     -0.03621494     -0.00198154
--
 
   (Skipping property calculation,
    use PROP keyword to activate)
--
 
  Total CASPT2 energies:
 
  State-specific CASPT2 energies obtained using
  rotated states do not have a well-defined physical
  meaning, however they can be extracted from the
  diagonal of the effective Hamiltonian.
 
++ Multi-State CASPT2 section:
********************************************************************************
  MULTI-STATE CASPT2 SECTION
--------------------------------------------------------------------------------
 
  Output diagonal energies have been shifted. Add    208.000000000000     
 
  Effective Hamiltonian matrix (Symmetric):
 
                1               2               3
   1      -416.64784076
   2        -0.00000004   -416.64241179
   3         0.01156633      0.00000001   -416.57251143
 
       Total XMS-CASPT2 energies:
::    XMS-CASPT2 Root  1     Total energy:   -208.64957670
::    XMS-CASPT2 Root  2     Total energy:   -208.64241179
::    XMS-CASPT2 Root  3     Total energy:   -208.57077550
 
       Eigenvectors:
            0.98892404     -0.00000534      0.14842249
            0.00000539      1.00000000      0.00000012
           -0.14842249      0.00000068      0.98892404
 
       In terms of the input states:
            0.99640044     -0.00000610     -0.08477122
            0.00000613      1.00000000      0.00000019
            0.08477122     -0.00000071      0.99640044
 
--
 
  THE ORIGINAL CI ARRAYS ARE NOW MIXED AS LINEAR
  COMBINATIONS, GIVEN BY THE EIGENVECTORS.
  A NEW JOBIPH FILE NAMED 'JOBMIX' IS PREPARED.
********************************************************************************
 
++ Mixed CI coefficients:
  The CI coefficients for the MIXED state nr.   1
--------------------------------------------------------------------------------
 CI COEFFICIENTS LARGER THAN  5.00E-02
  Occupation of active orbitals, and spin coupling
  of open shells. (u,d: Spin up or down).
  SGUGA info is (Midvert:IsyUp:UpperWalk/LowerWalk)
        Conf  SGUGA info        Occupation    Coefficient         Weight
           1  ( 1:1:   1/   1)   20              0.988902       0.977927
           3  ( 3:1:   1/   1)   02             -0.148400       0.022023
 
  The CI coefficients for the MIXED state nr.   2
--------------------------------------------------------------------------------
 CI COEFFICIENTS LARGER THAN  5.00E-02
  Occupation of active orbitals, and spin coupling
  of open shells. (u,d: Spin up or down).
  SGUGA info is (Midvert:IsyUp:UpperWalk/LowerWalk)
        Conf  SGUGA info        Occupation    Coefficient         Weight
           2  ( 2:1:   1/   1)   ud              0.999961       0.999922
 
  The CI coefficients for the MIXED state nr.   3
--------------------------------------------------------------------------------
 CI COEFFICIENTS LARGER THAN  5.00E-02
  Occupation of active orbitals, and spin coupling
  of open shells. (u,d: Spin up or down).
  SGUGA info is (Midvert:IsyUp:UpperWalk/LowerWalk)
        Conf  SGUGA info        Occupation    Coefficient         Weight
           1  ( 1:1:   1/   1)   20              0.148439       0.022034
           3  ( 3:1:   1/   1)   02              0.988908       0.977938
 
--
 
--- Stop Module: last_energy at Sat Jul 18 01:35:50 2026 /rc=_RC_ALL_IS_WELL_ ---
*** files: nc4h5_project.rasscf.molden nc4h5_project.rasscf.molden.1 nc4h5_project.rasscf.molden.2 nc4h5_project.rasscf.molden.3 nc4h5_project.RasOrb nc4h5_project.RasOrb.1
           nc4h5_project.RasOrb.2 nc4h5_project.RasOrb.3 nc4h5_project.SpdOrb.1 nc4h5_project.SpdOrb.2 nc4h5_project.SpdOrb.3 xmldump
    saved to directory /vscratch/grp-cyberwksp21/sbakenhaster/wed_7_8/openmolcas_pyspawn/Tutorials_OpenMolcas/03_S1_Optimization_CASPT2/nc4h5_project
--- Module last_energy spent 8 seconds ---

>>> END DO

*** symbolic link created: INPORB -> nc4h5_project.RasOrb
--- Start Module: rassi at Sat Jul 18 01:35:51 2026 ---
 
()()()()()()()()()()()()()()()()()()()()()()()()()()()()()()()()()()()()()()()()()()()()()()()()()()

                                               &RASSI

                       only a single process is used, running in SERIAL mode
                       available to each process: 2.0 GB of memory, 1 thread?
                                            pid: 1523900
()()()()()()()()()()()()()()()()()()()()()()()()()()()()()()()()()()()()()()()()()()()()()()()()()()
 
 
      ********************************************************************************
      *                                                                              *
      *                             General data section                             *
      *                                                                              *
      ********************************************************************************
 
   Specific data for JOBIPH file JOB001
   -------------------------------------
 
   Header from SEWARD:
                                                                               
        Integrals generated by Gateway/Seward, Sat Jul 18 01:35:23 2026        
 
   CASSCF title (first line only):
       cyclopent SA-3-CAS(2,2)SCF                                              
 
  STATE IRREP:                1
  SPIN MULTIPLICITY:          1
  ACTIVE ELECTRONS:           2
  MAX RAS1 HOLES:             0
  MAX RAS3 ELECTRONS:         0
  NR OF CONFIG:               3
 ###############################################################################
 ###############################################################################
 ###                                                                         ###
 ###                                                                         ###
 ###    WARNING: EJOB used when HEFF is available, possible                  ###
 ###    extra interaction between states is ignored!                         ###
 ###                                                                         ###
 ###                                                                         ###
 ###############################################################################
 ###############################################################################
 
   The following data are common to all the states:
   ------------------------------------------------
   (note: frozen counts as inactive, deleted as secondary)
 
      Nr of irreps: 1
 
                 Total     No./Irrep
      Irrep                  1
                             a
 
      INACTIVE      16      16
      ACTIVE         2       2
      SECONDARY     67      67
      BASIS         85      85
 
      RAS1           0       0
      RAS2           2       2
      RAS3           0       0
 
        MATRIX ELEMENTS WILL BE COMPUTED FOR THE FOLLOWING ONE-ELECTRON OPERATOR
 S, UNLESS ZERO BY SYMMETRY.
   (Herm=Hermitian, Anti=Antihermitian, Sing=Singlet operator, Trip=Triplet oper
 ator)
     MLTPL  0   1 (HERMSING)     MLTPL  1   1 (HERMSING)     MLTPL  1   2 (HERMSING)
     MLTPL  1   3 (HERMSING)     MLTPL  2   1 (HERMSING)     MLTPL  2   2 (HERMSING)
     MLTPL  2   3 (HERMSING)     MLTPL  2   4 (HERMSING)     MLTPL  2   5 (HERMSING)
     MLTPL  2   6 (HERMSING)     VELOCITY   1 (ANTISING)     VELOCITY   2 (ANTISING)
     VELOCITY   3 (ANTISING)     ANGMOM     1 (ANTISING)     ANGMOM     2 (ANTISING)
     ANGMOM     3 (ANTISING)     MLTPV  2   1 (ANTISING)     MLTPV  2   2 (ANTISING)
     MLTPV  2   3 (ANTISING)     MLTPV  2   4 (ANTISING)     MLTPV  2   5 (ANTISING)
     MLTPV  2   6 (ANTISING)
 
       EIGENSTATES OF A SPIN-FREE HAMILTONIAN WILL BE COMPUTED BASED ON:
 
  a Hamiltonian matrix assumed to be diagonal with energies read from the wavefu
 nction file(s).
 
  Nr of states:                     3
 
   State:        1   2   3
  JobIph:        1   1   1
 Root nr:        1   2   3
  READCI called for state                      1
  This is on JobIph nr.                     1
  JobIph file name:
 JOB001                                                                         
                                                  
  It is root nr.                     1
  Its length NCI=                     3
  Its symmetry  =                     1
  Spin multiplic=                     1
  Occupation of active orbitals, and spin coupling
  of open shells. (u,d: Spin up or down).
  SGUGA info is (Midvert:IsyUp:UpperWalk/LowerWalk)
   Conf   SGUGA info  Occupation       Coef       Weight                        
  
      1 ( 1:1:  1/  1)    20          0.98894      0.97800
      3 ( 3:1:  1/  1)    02         -0.14833      0.02200
 
 *******************************************************************************
 *
  READCI called for state                      2
  This is on JobIph nr.                     1
  JobIph file name:
 JOB001                                                                         
                                                  
  It is root nr.                     2
  Its length NCI=                     3
  Its symmetry  =                     1
  Spin multiplic=                     1
  Occupation of active orbitals, and spin coupling
  of open shells. (u,d: Spin up or down).
  SGUGA info is (Midvert:IsyUp:UpperWalk/LowerWalk)
   Conf   SGUGA info  Occupation       Coef       Weight                        
  
      2 ( 2:1:  1/  1)    ud          1.00000      1.00000
 
 *******************************************************************************
 *
  READCI called for state                      3
  This is on JobIph nr.                     1
  JobIph file name:
 JOB001                                                                         
                                                  
  It is root nr.                     3
  Its length NCI=                     3
  Its symmetry  =                     1
  Spin multiplic=                     1
  Occupation of active orbitals, and spin coupling
  of open shells. (u,d: Spin up or down).
  SGUGA info is (Midvert:IsyUp:UpperWalk/LowerWalk)
   Conf   SGUGA info  Occupation       Coef       Weight                        
  
      1 ( 1:1:  1/  1)    20          0.14833      0.02200
      3 ( 3:1:  1/  1)    02          0.98894      0.97800
 
 *******************************************************************************
 *
  READCI called for state                      1
  This is on JobIph nr.                     1
  JobIph file name:
 JOB001                                                                         
                                                  
  It is root nr.                     1
  Its length NCI=                     3
  Its symmetry  =                     1
  Spin multiplic=                     1
  Occupation of active orbitals, and spin coupling
  of open shells. (u,d: Spin up or down).
  SGUGA info is (Midvert:IsyUp:UpperWalk/LowerWalk)
   Conf   SGUGA info  Occupation       Coef       Weight                        
  
      1 ( 1:1:  1/  1)    20          0.98894      0.97800
      3 ( 3:1:  1/  1)    02         -0.14833      0.02200
 
 *******************************************************************************
 *
  READCI called for state                      2
  This is on JobIph nr.                     1
  JobIph file name:
 JOB001                                                                         
                                                  
  It is root nr.                     2
  Its length NCI=                     3
  Its symmetry  =                     1
  Spin multiplic=                     1
  Occupation of active orbitals, and spin coupling
  of open shells. (u,d: Spin up or down).
  SGUGA info is (Midvert:IsyUp:UpperWalk/LowerWalk)
   Conf   SGUGA info  Occupation       Coef       Weight                        
  
      2 ( 2:1:  1/  1)    ud          1.00000      1.00000
 
 *******************************************************************************
 *
  READCI called for state                      3
  This is on JobIph nr.                     1
  JobIph file name:
 JOB001                                                                         
                                                  
  It is root nr.                     3
  Its length NCI=                     3
  Its symmetry  =                     1
  Spin multiplic=                     1
  Occupation of active orbitals, and spin coupling
  of open shells. (u,d: Spin up or down).
  SGUGA info is (Midvert:IsyUp:UpperWalk/LowerWalk)
   Conf   SGUGA info  Occupation       Coef       Weight                        
  
      1 ( 1:1:  1/  1)    20          0.14833      0.02200
      3 ( 3:1:  1/  1)    02          0.98894      0.97800
 
 *******************************************************************************
 *
 
  HAMILTONIAN MATRIX FOR THE ORIGINAL STATES:
 
  Diagonal, with energies
   -208.64958488   -208.64241166   -208.57075785
 
      OVERLAP MATRIX FOR THE ORIGINAL STATES:
 
  Diagonal, with elements
      1.00000000      1.00000000      1.00000000
 
::    RASSI State    1     Total energy:    -208.64958487789426
::    RASSI State    2     Total energy:    -208.64241166431390
::    RASSI State    3     Total energy:    -208.57075785081923
 
 
 
      ****************************************************************************************************
      *                                                                                                  *
      *                                         Spin-free section                                        *
      *                                                                                                  *
      *                 Note: index according to input order, order according to energy.                 *
      *                                                                                                  *
      ****************************************************************************************************
 
 
 
  SPIN-FREE ENERGIES:
  (Shifted by EMIN (a.u.) =       -208.6495848779)
 
 SF State       Relative EMIN(au)   Rel lowest level(eV)    D:o, cm**(-1)
 
     1             0.0000000000        0.0000000000              0.0000
     2             0.0071732136        0.1951930854           1574.3384
     3             0.0788270271        2.1449926804          17300.5327
 
++ Dipole transition strengths (spin-free states):
   -----------------------------------------------
     for osc. strength at least  1.00000000E-05
 
      From   To        Osc. strength     Einstein coefficients Ax, Ay, Az (sec-1)    Total A (sec-1)
     -----------------------------------------------------------------------------------------------
         1    2       3.09867803E-03  2.61836021E-05  5.12288797E+03  9.03668013E-17  5.12288799E+03
         1    3       2.45543735E-03  4.90218880E+05  2.26356563E-03  2.59647736E-14  4.90218882E+05
         2    3       5.66559252E-02  6.73080130E-02  9.34619491E+06  1.64857519E-13  9.34619497E+06
     -----------------------------------------------------------------------------------------------
--
 
++ Dipole transition vectors (spin-free states):
   ---------------------------------------------
     for vector sizes at least  1.00000000E-04
 
      From   To                   Dx              Dy              Dz  Total D (a.u.)
     -------------------------------------------------------------------------------
         1    2       5.75485308E-05  8.04964957E-01 -1.06911396E-10  8.04964959E-01
         1    3       2.16158582E-01  1.46883838E-05  4.97473254E-11  2.16158583E-01
         2    3       9.24197117E-05  1.08905206E+00 -1.44639065E-10  1.08905207E+00
     -----------------------------------------------------------------------------------------------
--
 
++ Velocity transition strengths (spin-free states):
   -------------------------------------------------
     for osc. strength at least  1.00000000E-05
 
      From   To        Osc. strength     Einstein coefficients Ax, Ay, Az (sec-1)    Total A (sec-1)
     -----------------------------------------------------------------------------------------------
         1    2       4.56835848E-02  1.13434363E-02  7.55263536E+04  1.73112261E-14  7.55263650E+04
         2    3       2.49856870E-03  6.19051596E-02  4.12174130E+05  9.44735081E-14  4.12174192E+05
     -----------------------------------------------------------------------------------------------
--
 
++ Length and velocity gauge comparison (spin-free states):
   --------------------------------------------------------
 
 --------------------------------------------------
 A comparison between the dipole oscillator strengths in
 length and velocity gauge will be performed
 
     All dipole oscillator differences above the tolerance of   1.00000000E-01  will be printed
 
 Due to basis set deficiency these oscillator may be problematic
 
 The tolerance is defined as ABS(1-O_l/O_v)
 O_l : dipole oscillator strength in length gauge
 O_p : dipole oscillator strength in velocity gauge
 --------------------------------------------------
 
  Problematic transitions have been found
 
      From   To       Difference (%) Osc. st. (len.) Osc. st. (vel.)
     ---------------------------------------------------------------
         1    2            93.217087  3.09867803E-03  4.56835848E-02
         1    3      ---------------  2.45543735E-03 below threshold
         2    3          2167.535220  5.66559252E-02  2.49856870E-03
     ---------------------------------------------------------------
 
 Number of problematic transitions =                      3
 
--
 
 Electric-dipole - electric-octupole not included
 Electric-dipole - magnetic-quadrupole not included
 
 
      ****************************************************************************************************
      *                                                                                                  *
      *                                    Special properties section                                    *
      *                                                                                                  *
      ****************************************************************************************************
 
 
--- Stop Module: rassi at Sat Jul 18 01:35:51 2026 /rc=_RC_ALL_IS_WELL_ ---
*** files: nc4h5_project.rassi.h5 xmldump
    saved to directory /vscratch/grp-cyberwksp21/sbakenhaster/wed_7_8/openmolcas_pyspawn/Tutorials_OpenMolcas/03_S1_Optimization_CASPT2/nc4h5_project

.##################.
.# Happy landing! #.
.##################.

    Timing: Wall=153.45 User=109.81 System=17.60
