[Molden Format]
[N_Atoms]
                    10
[Atoms] (AU)
C1          1      6           0.66101760     -2.18451347      0.00000000
C2          2      6          -1.93901488     -1.35898472      0.00000000
C3          3      6          -1.93879710      1.35927349     -0.00000000
C4          4      6           0.66136904      2.18438785      0.00000000
N5          5      7           2.12836506     -0.00018208     -0.00000000
H6          6      1           1.48245477     -4.07369620      0.00000000
H7          7      1          -3.60481108     -2.58246111      0.00000000
H8          8      1          -3.60439832      2.58301305     -0.00000000
H9          9      1           1.48312832      4.07343134      0.00000000
H10        10      1           4.09498735     -0.00033395     -0.00000000
[Charge] (Mulliken)
 -0.121571635587618     
  0.121934168637701     
  0.121934654694563     
 -0.121575356991514     
 -0.302851943794310     
  0.435601940515993     
  0.435148455922897     
  0.435148199158296     
  0.435602053921964     
  0.560629463521279     
[GTO] (AU)
   1
   s   6
  3.047524880E+03  1.834737132E-03
  4.573695180E+02  1.403732281E-02
  1.039486850E+02  6.884262227E-02
  2.921015530E+01  2.321844432E-01
  9.286662960E+00  4.679413484E-01
  3.163926960E+00  3.623119853E-01
   s   3
  7.868272350E+00 -1.193324198E-01
  1.881288540E+00 -1.608541517E-01
  5.442492580E-01  1.143456438E+00
   s   1
  1.687144782E-01  1.000000000E+00
   p   3
  7.868272350E+00  6.899906659E-02
  1.881288540E+00  3.164239610E-01
  5.442492580E-01  7.443082909E-01
   p   1
  1.687144782E-01  1.000000000E+00
   d   1
  8.000000000E-01  1.000000000E+00
 
   2
   s   6
  3.047524880E+03  1.834737132E-03
  4.573695180E+02  1.403732281E-02
  1.039486850E+02  6.884262227E-02
  2.921015530E+01  2.321844432E-01
  9.286662960E+00  4.679413484E-01
  3.163926960E+00  3.623119853E-01
   s   3
  7.868272350E+00 -1.193324198E-01
  1.881288540E+00 -1.608541517E-01
  5.442492580E-01  1.143456438E+00
   s   1
  1.687144782E-01  1.000000000E+00
   p   3
  7.868272350E+00  6.899906659E-02
  1.881288540E+00  3.164239610E-01
  5.442492580E-01  7.443082909E-01
   p   1
  1.687144782E-01  1.000000000E+00
   d   1
  8.000000000E-01  1.000000000E+00
 
   3
   s   6
  3.047524880E+03  1.834737132E-03
  4.573695180E+02  1.403732281E-02
  1.039486850E+02  6.884262227E-02
  2.921015530E+01  2.321844432E-01
  9.286662960E+00  4.679413484E-01
  3.163926960E+00  3.623119853E-01
   s   3
  7.868272350E+00 -1.193324198E-01
  1.881288540E+00 -1.608541517E-01
  5.442492580E-01  1.143456438E+00
   s   1
  1.687144782E-01  1.000000000E+00
   p   3
  7.868272350E+00  6.899906659E-02
  1.881288540E+00  3.164239610E-01
  5.442492580E-01  7.443082909E-01
   p   1
  1.687144782E-01  1.000000000E+00
   d   1
  8.000000000E-01  1.000000000E+00
 
   4
   s   6
  3.047524880E+03  1.834737132E-03
  4.573695180E+02  1.403732281E-02
  1.039486850E+02  6.884262227E-02
  2.921015530E+01  2.321844432E-01
  9.286662960E+00  4.679413484E-01
  3.163926960E+00  3.623119853E-01
   s   3
  7.868272350E+00 -1.193324198E-01
  1.881288540E+00 -1.608541517E-01
  5.442492580E-01  1.143456438E+00
   s   1
  1.687144782E-01  1.000000000E+00
   p   3
  7.868272350E+00  6.899906659E-02
  1.881288540E+00  3.164239610E-01
  5.442492580E-01  7.443082909E-01
   p   1
  1.687144782E-01  1.000000000E+00
   d   1
  8.000000000E-01  1.000000000E+00
 
   5
   s   6
  4.173511460E+03  1.834772160E-03
  6.274579110E+02  1.399462700E-02
  1.429020930E+02  6.858655181E-02
  4.023432930E+01  2.322408730E-01
  1.282021290E+01  4.690699481E-01
  4.390437010E+00  3.604551991E-01
   s   3
  1.162636186E+01 -1.149611817E-01
  2.716279807E+00 -1.691174786E-01
  7.722183966E-01  1.145851947E+00
   s   1
  2.120314975E-01  1.000000000E+00
   p   3
  1.162636186E+01  6.757974388E-02
  2.716279807E+00  3.239072959E-01
  7.722183966E-01  7.408951398E-01
   p   1
  2.120314975E-01  1.000000000E+00
   d   1
  8.000000000E-01  1.000000000E+00
 
   6
   s   3
  1.873113696E+01  3.349460434E-02
  2.825394365E+00  2.347269535E-01
  6.401216923E-01  8.137573261E-01
   s   1
  1.612777588E-01  1.000000000E+00
 
   7
   s   3
  1.873113696E+01  3.349460434E-02
  2.825394365E+00  2.347269535E-01
  6.401216923E-01  8.137573261E-01
   s   1
  1.612777588E-01  1.000000000E+00
 
   8
   s   3
  1.873113696E+01  3.349460434E-02
  2.825394365E+00  2.347269535E-01
  6.401216923E-01  8.137573261E-01
   s   1
  1.612777588E-01  1.000000000E+00
 
   9
   s   3
  1.873113696E+01  3.349460434E-02
  2.825394365E+00  2.347269535E-01
  6.401216923E-01  8.137573261E-01
   s   1
  1.612777588E-01  1.000000000E+00
 
  10
   s   3
  1.873113696E+01  3.349460434E-02
  2.825394365E+00  2.347269535E-01
  6.401216923E-01  8.137573261E-01
   s   1
  1.612777588E-01  1.000000000E+00
 
[MO]
Sym=     1a  
Ene=   -16.1710
Spin= Alpha
Occup=    1.00000
   1         0.00001273
   2         0.00018598
   3         0.00194993
   4         0.00017406
   5         0.00018176
   6        -0.00000000
   7        -0.00017828
   8         0.00128506
   9        -0.00000000
  10        -0.00010189
  11        -0.00012100
  12        -0.00007585
  13        -0.00004332
  14        -0.00000000
  15        -0.00000000
  16         0.00000830
  17        -0.00000758
  18        -0.00067091
  19        -0.00006330
  20         0.00005016
  21        -0.00000000
  22        -0.00043402
  23        -0.00014368
  24        -0.00000000
  25         0.00001088
  26         0.00003286
  27         0.00000163
  28         0.00002023
  29        -0.00000000
  30        -0.00000000
  31         0.00000830
  32        -0.00000758
  33        -0.00067091
  34        -0.00006330
  35        -0.00005015
  36        -0.00000000
  37        -0.00043399
  38         0.00014374
  39        -0.00000000
  40         0.00001087
  41         0.00003286
  42         0.00000163
  43        -0.00002023
  44         0.00000000
  45        -0.00000000
  46         0.00001273
  47         0.00018598
  48         0.00194992
  49         0.00017403
  50        -0.00018179
  51        -0.00000000
  52        -0.00017849
  53        -0.00128501
  54        -0.00000000
  55        -0.00010188
  56        -0.00012101
  57        -0.00007585
  58         0.00004331
  59         0.00000000
  60         0.00000000
  61         0.99508400
  62         0.02480148
  63        -0.00356148
  64        -0.00041238
  65         0.00000003
  66        -0.00000000
  67         0.00145959
  68        -0.00000011
  69        -0.00000000
  70        -0.00316306
  71        -0.00323812
  72        -0.00342599
  73        -0.00000001
  74         0.00000000
  75        -0.00000000
  76         0.00001231
  77         0.00031174
  78        -0.00002446
  79        -0.00009137
  80        -0.00002446
  81        -0.00009136
  82         0.00001231
  83         0.00031174
  84         0.00013412
  85        -0.00001455
Sym=     1a  
Ene=   -16.1710
Spin= Beta
Occup=    1.00000
   1         0.00001273
   2         0.00018598
   3         0.00194993
   4         0.00017406
   5         0.00018176
   6        -0.00000000
   7        -0.00017828
   8         0.00128506
   9        -0.00000000
  10        -0.00010189
  11        -0.00012100
  12        -0.00007585
  13        -0.00004332
  14        -0.00000000
  15        -0.00000000
  16         0.00000830
  17        -0.00000758
  18        -0.00067091
  19        -0.00006330
  20         0.00005016
  21        -0.00000000
  22        -0.00043402
  23        -0.00014368
  24        -0.00000000
  25         0.00001088
  26         0.00003286
  27         0.00000163
  28         0.00002023
  29        -0.00000000
  30        -0.00000000
  31         0.00000830
  32        -0.00000758
  33        -0.00067091
  34        -0.00006330
  35        -0.00005015
  36        -0.00000000
  37        -0.00043399
  38         0.00014374
  39        -0.00000000
  40         0.00001087
  41         0.00003286
  42         0.00000163
  43        -0.00002023
  44         0.00000000
  45        -0.00000000
  46         0.00001273
  47         0.00018598
  48         0.00194992
  49         0.00017403
  50        -0.00018179
  51        -0.00000000
  52        -0.00017849
  53        -0.00128501
  54        -0.00000000
  55        -0.00010188
  56        -0.00012101
  57        -0.00007585
  58         0.00004331
  59         0.00000000
  60         0.00000000
  61         0.99508400
  62         0.02480148
  63        -0.00356148
  64        -0.00041238
  65         0.00000003
  66        -0.00000000
  67         0.00145959
  68        -0.00000011
  69        -0.00000000
  70        -0.00316306
  71        -0.00323812
  72        -0.00342599
  73        -0.00000001
  74         0.00000000
  75        -0.00000000
  76         0.00001231
  77         0.00031174
  78        -0.00002446
  79        -0.00009137
  80        -0.00002446
  81        -0.00009136
  82         0.00001231
  83         0.00031174
  84         0.00013412
  85        -0.00001455
Sym=     2a  
Ene=   -11.8030
Spin= Alpha
Occup=    1.00000
   1        -0.69987880
   2        -0.01891967
   3         0.00841112
   4        -0.00007834
   5        -0.00108179
   6        -0.00000000
   7        -0.00202619
   8         0.00243556
   9         0.00000000
  10         0.00106339
  11         0.00095825
  12         0.00154498
  13         0.00001696
  14        -0.00000000
  15         0.00000000
  16        -0.01165321
  17        -0.00034472
  18        -0.00469331
  19         0.00009290
  20        -0.00001210
  21         0.00000000
  22        -0.00214338
  23        -0.00008675
  24         0.00000000
  25         0.00044857
  26         0.00028412
  27         0.00013371
  28         0.00002337
  29         0.00000000
  30         0.00000000
  31         0.01179330
  32         0.00034837
  33         0.00470546
  34        -0.00009510
  35        -0.00001294
  36        -0.00000000
  37         0.00214589
  38        -0.00008285
  39         0.00000000
  40        -0.00045389
  41        -0.00028544
  42        -0.00013498
  43         0.00002216
  44         0.00000000
  45         0.00000000
  46         0.70821409
  47         0.01913767
  48        -0.00846692
  49         0.00008098
  50        -0.00109459
  51        -0.00000000
  52         0.00202364
  53         0.00242089
  54         0.00000000
  55        -0.00107540
  56        -0.00096589
  57        -0.00156547
  58         0.00001682
  59        -0.00000000
  60         0.00000000
  61        -0.00000200
  62         0.00000379
  63        -0.00000165
  64        -0.00000038
  65         0.00004182
  66        -0.00000000
  67         0.00001469
  68        -0.00026355
  69        -0.00000000
  70        -0.00000340
  71        -0.00000523
  72         0.00000153
  73         0.00049471
  74        -0.00000000
  75        -0.00000000
  76         0.00024947
  77        -0.00011505
  78         0.00000528
  79        -0.00016241
  80        -0.00000600
  81         0.00016114
  82        -0.00025005
  83         0.00013595
  84        -0.00000175
  85        -0.00000482
Sym=     2a  
Ene=   -11.8030
Spin= Beta
Occup=    1.00000
   1        -0.69987880
   2        -0.01891967
   3         0.00841112
   4        -0.00007834
   5        -0.00108179
   6        -0.00000000
   7        -0.00202619
   8         0.00243556
   9         0.00000000
  10         0.00106339
  11         0.00095825
  12         0.00154498
  13         0.00001696
  14        -0.00000000
  15         0.00000000
  16        -0.01165321
  17        -0.00034472
  18        -0.00469331
  19         0.00009290
  20        -0.00001210
  21         0.00000000
  22        -0.00214338
  23        -0.00008675
  24         0.00000000
  25         0.00044857
  26         0.00028412
  27         0.00013371
  28         0.00002337
  29         0.00000000
  30         0.00000000
  31         0.01179330
  32         0.00034837
  33         0.00470546
  34        -0.00009510
  35        -0.00001294
  36        -0.00000000
  37         0.00214589
  38        -0.00008285
  39         0.00000000
  40        -0.00045389
  41        -0.00028544
  42        -0.00013498
  43         0.00002216
  44         0.00000000
  45         0.00000000
  46         0.70821409
  47         0.01913767
  48        -0.00846692
  49         0.00008098
  50        -0.00109459
  51        -0.00000000
  52         0.00202364
  53         0.00242089
  54         0.00000000
  55        -0.00107540
  56        -0.00096589
  57        -0.00156547
  58         0.00001682
  59        -0.00000000
  60         0.00000000
  61        -0.00000200
  62         0.00000379
  63        -0.00000165
  64        -0.00000038
  65         0.00004182
  66        -0.00000000
  67         0.00001469
  68        -0.00026355
  69        -0.00000000
  70        -0.00000340
  71        -0.00000523
  72         0.00000153
  73         0.00049471
  74        -0.00000000
  75        -0.00000000
  76         0.00024947
  77        -0.00011505
  78         0.00000528
  79        -0.00016241
  80        -0.00000600
  81         0.00016114
  82        -0.00025005
  83         0.00013595
  84        -0.00000175
  85        -0.00000482
Sym=     3a  
Ene=   -11.8020
Spin= Alpha
Occup=    1.00000
   1         0.70814477
   2         0.01852542
   3        -0.00476243
   4         0.00023831
   5         0.00108696
   6        -0.00000000
   7        -0.00023757
   8         0.00119843
   9         0.00000000
  10        -0.00102156
  11        -0.00065014
  12        -0.00174072
  13         0.00001335
  14        -0.00000000
  15        -0.00000000
  16         0.01191150
  17         0.00031061
  18         0.00105295
  19        -0.00018610
  20         0.00007217
  21        -0.00000000
  22         0.00022506
  23        -0.00035780
  24         0.00000000
  25        -0.00045162
  26        -0.00011310
  27        -0.00010732
  28         0.00010530
  29        -0.00000000
  30         0.00000000
  31         0.01177258
  32         0.00030651
  33         0.00099731
  34        -0.00018500
  35        -0.00007199
  36        -0.00000000
  37         0.00019972
  38         0.00035875
  39        -0.00000000
  40        -0.00044631
  41        -0.00010970
  42        -0.00010573
  43        -0.00010550
  44        -0.00000000
  45         0.00000000
  46         0.69980866
  47         0.01830010
  48        -0.00466252
  49         0.00023719
  50        -0.00107411
  51        -0.00000000
  52        -0.00026177
  53        -0.00122711
  54         0.00000000
  55        -0.00100890
  56        -0.00063875
  57        -0.00172230
  58        -0.00001348
  59         0.00000000
  60         0.00000000
  61        -0.00033746
  62         0.00064048
  63        -0.00028012
  64        -0.00006399
  65        -0.00000024
  66        -0.00000000
  67         0.00248783
  68         0.00000138
  69        -0.00000000
  70        -0.00058679
  71        -0.00087190
  72         0.00025829
  73        -0.00000296
  74         0.00000000
  75        -0.00000000
  76        -0.00005014
  77         0.00176698
  78        -0.00006062
  79        -0.00010578
  80        -0.00006055
  81        -0.00010769
  82        -0.00004719
  83         0.00176548
  84        -0.00029557
  85        -0.00081480
Sym=     3a  
Ene=   -11.8020
Spin= Beta
Occup=    1.00000
   1         0.70814477
   2         0.01852542
   3        -0.00476243
   4         0.00023831
   5         0.00108696
   6        -0.00000000
   7        -0.00023757
   8         0.00119843
   9         0.00000000
  10        -0.00102156
  11        -0.00065014
  12        -0.00174072
  13         0.00001335
  14        -0.00000000
  15        -0.00000000
  16         0.01191150
  17         0.00031061
  18         0.00105295
  19        -0.00018610
  20         0.00007217
  21        -0.00000000
  22         0.00022506
  23        -0.00035780
  24         0.00000000
  25        -0.00045162
  26        -0.00011310
  27        -0.00010732
  28         0.00010530
  29        -0.00000000
  30         0.00000000
  31         0.01177258
  32         0.00030651
  33         0.00099731
  34        -0.00018500
  35        -0.00007199
  36        -0.00000000
  37         0.00019972
  38         0.00035875
  39        -0.00000000
  40        -0.00044631
  41        -0.00010970
  42        -0.00010573
  43        -0.00010550
  44        -0.00000000
  45         0.00000000
  46         0.69980866
  47         0.01830010
  48        -0.00466252
  49         0.00023719
  50        -0.00107411
  51        -0.00000000
  52        -0.00026177
  53        -0.00122711
  54         0.00000000
  55        -0.00100890
  56        -0.00063875
  57        -0.00172230
  58        -0.00001348
  59         0.00000000
  60         0.00000000
  61        -0.00033746
  62         0.00064048
  63        -0.00028012
  64        -0.00006399
  65        -0.00000024
  66        -0.00000000
  67         0.00248783
  68         0.00000138
  69        -0.00000000
  70        -0.00058679
  71        -0.00087190
  72         0.00025829
  73        -0.00000296
  74         0.00000000
  75        -0.00000000
  76        -0.00005014
  77         0.00176698
  78        -0.00006062
  79        -0.00010578
  80        -0.00006055
  81        -0.00010769
  82        -0.00004719
  83         0.00176548
  84        -0.00029557
  85        -0.00081480
Sym=     4a  
Ene=   -11.7750
Spin= Alpha
Occup=    1.00000
   1        -0.01214369
   2        -0.00043671
   3         0.00393524
   4         0.00016862
   5        -0.00006101
   6         0.00000000
   7        -0.00122947
   8         0.00161111
   9        -0.00000000
  10        -0.00037942
  11        -0.00011544
  12        -0.00009819
  13         0.00007939
  14         0.00000000
  15        -0.00000000
  16         0.70382955
  17         0.01916182
  18        -0.00642014
  19         0.00055254
  20         0.00037402
  21        -0.00000000
  22        -0.00167461
  23        -0.00014776
  24         0.00000000
  25        -0.00118361
  26        -0.00147051
  27        -0.00172634
  28         0.00005828
  29         0.00000000
  30         0.00000000
  31         0.70393729
  32         0.01916475
  33        -0.00642222
  34         0.00055259
  35        -0.00037419
  36         0.00000000
  37        -0.00167502
  38         0.00014850
  39        -0.00000000
  40        -0.00118375
  41        -0.00147058
  42        -0.00172657
  43        -0.00005835
  44        -0.00000000
  45         0.00000000
  46        -0.01214540
  47        -0.00043673
  48         0.00393593
  49         0.00016863
  50         0.00006100
  51         0.00000000
  52        -0.00122993
  53        -0.00161112
  54        -0.00000000
  55        -0.00037951
  56        -0.00011547
  57        -0.00009820
  58        -0.00007937
  59        -0.00000000
  60        -0.00000000
  61         0.00007172
  62         0.00009892
  63        -0.00249227
  64        -0.00007176
  65         0.00000000
  66         0.00000000
  67         0.00092551
  68        -0.00000011
  69        -0.00000000
  70         0.00026753
  71         0.00013017
  72         0.00011779
  73        -0.00000002
  74        -0.00000000
  75        -0.00000000
  76         0.00000736
  77         0.00040735
  78        -0.00018589
  79         0.00061994
  80        -0.00018591
  81         0.00062000
  82         0.00000736
  83         0.00040737
  84        -0.00005526
  85        -0.00005810
Sym=     4a  
Ene=   -11.7750
Spin= Beta
Occup=    1.00000
   1        -0.01214369
   2        -0.00043671
   3         0.00393524
   4         0.00016862
   5        -0.00006101
   6         0.00000000
   7        -0.00122947
   8         0.00161111
   9        -0.00000000
  10        -0.00037942
  11        -0.00011544
  12        -0.00009819
  13         0.00007939
  14         0.00000000
  15        -0.00000000
  16         0.70382955
  17         0.01916182
  18        -0.00642014
  19         0.00055254
  20         0.00037402
  21        -0.00000000
  22        -0.00167461
  23        -0.00014776
  24         0.00000000
  25        -0.00118361
  26        -0.00147051
  27        -0.00172634
  28         0.00005828
  29         0.00000000
  30         0.00000000
  31         0.70393729
  32         0.01916475
  33        -0.00642222
  34         0.00055259
  35        -0.00037419
  36         0.00000000
  37        -0.00167502
  38         0.00014850
  39        -0.00000000
  40        -0.00118375
  41        -0.00147058
  42        -0.00172657
  43        -0.00005835
  44        -0.00000000
  45         0.00000000
  46        -0.01214540
  47        -0.00043673
  48         0.00393593
  49         0.00016863
  50         0.00006100
  51         0.00000000
  52        -0.00122993
  53        -0.00161112
  54        -0.00000000
  55        -0.00037951
  56        -0.00011547
  57        -0.00009820
  58        -0.00007937
  59        -0.00000000
  60        -0.00000000
  61         0.00007172
  62         0.00009892
  63        -0.00249227
  64        -0.00007176
  65         0.00000000
  66         0.00000000
  67         0.00092551
  68        -0.00000011
  69        -0.00000000
  70         0.00026753
  71         0.00013017
  72         0.00011779
  73        -0.00000002
  74        -0.00000000
  75        -0.00000000
  76         0.00000736
  77         0.00040735
  78        -0.00018589
  79         0.00061994
  80        -0.00018591
  81         0.00062000
  82         0.00000736
  83         0.00040737
  84        -0.00005526
  85        -0.00005810
Sym=     5a  
Ene=   -11.7740
Spin= Alpha
Occup=    1.00000
   1         0.01204465
   2         0.00021649
   3        -0.00454560
   4        -0.00003656
   5         0.00010870
   6         0.00000000
   7         0.00128649
   8        -0.00136998
   9        -0.00000000
  10         0.00045676
  11         0.00028447
  12         0.00007381
  13        -0.00016878
  14        -0.00000000
  15        -0.00000000
  16        -0.70425402
  17        -0.01916271
  18         0.01358726
  19        -0.00069956
  20        -0.00054792
  21         0.00000000
  22         0.00280709
  23         0.00308565
  24        -0.00000000
  25         0.00078076
  26         0.00054647
  27         0.00152396
  28        -0.00009868
  29         0.00000000
  30         0.00000000
  31         0.70414633
  32         0.01915978
  33        -0.01358628
  34         0.00069938
  35        -0.00054798
  36         0.00000000
  37        -0.00280634
  38         0.00308608
  39        -0.00000000
  40        -0.00078061
  41        -0.00054622
  42        -0.00152370
  43        -0.00009863
  44         0.00000000
  45        -0.00000000
  46        -0.01204267
  47        -0.00021642
  48         0.00454499
  49         0.00003655
  50         0.00010869
  51         0.00000000
  52        -0.00128653
  53        -0.00136953
  54        -0.00000000
  55        -0.00045675
  56        -0.00028441
  57        -0.00007379
  58        -0.00016874
  59        -0.00000000
  60         0.00000000
  61        -0.00000001
  62        -0.00000001
  63         0.00000019
  64         0.00000000
  65        -0.00001956
  66         0.00000000
  67        -0.00000011
  68        -0.00053498
  69         0.00000000
  70        -0.00000003
  71        -0.00000000
  72        -0.00000001
  73        -0.00004146
  74         0.00000000
  75         0.00000000
  76        -0.00000750
  77        -0.00012977
  78         0.00015419
  79        -0.00035515
  80        -0.00015417
  81         0.00035506
  82         0.00000750
  83         0.00012971
  84         0.00000000
  85         0.00000000
Sym=     5a  
Ene=   -11.7740
Spin= Beta
Occup=    1.00000
   1         0.01204465
   2         0.00021649
   3        -0.00454560
   4        -0.00003656
   5         0.00010870
   6         0.00000000
   7         0.00128649
   8        -0.00136998
   9        -0.00000000
  10         0.00045676
  11         0.00028447
  12         0.00007381
  13        -0.00016878
  14        -0.00000000
  15        -0.00000000
  16        -0.70425402
  17        -0.01916271
  18         0.01358726
  19        -0.00069956
  20        -0.00054792
  21         0.00000000
  22         0.00280709
  23         0.00308565
  24        -0.00000000
  25         0.00078076
  26         0.00054647
  27         0.00152396
  28        -0.00009868
  29         0.00000000
  30         0.00000000
  31         0.70414633
  32         0.01915978
  33        -0.01358628
  34         0.00069938
  35        -0.00054798
  36         0.00000000
  37        -0.00280634
  38         0.00308608
  39        -0.00000000
  40        -0.00078061
  41        -0.00054622
  42        -0.00152370
  43        -0.00009863
  44         0.00000000
  45        -0.00000000
  46        -0.01204267
  47        -0.00021642
  48         0.00454499
  49         0.00003655
  50         0.00010869
  51         0.00000000
  52        -0.00128653
  53        -0.00136953
  54        -0.00000000
  55        -0.00045675
  56        -0.00028441
  57        -0.00007379
  58        -0.00016874
  59        -0.00000000
  60         0.00000000
  61        -0.00000001
  62        -0.00000001
  63         0.00000019
  64         0.00000000
  65        -0.00001956
  66         0.00000000
  67        -0.00000011
  68        -0.00053498
  69         0.00000000
  70        -0.00000003
  71        -0.00000000
  72        -0.00000001
  73        -0.00004146
  74         0.00000000
  75         0.00000000
  76        -0.00000750
  77        -0.00012977
  78         0.00015419
  79        -0.00035515
  80        -0.00015417
  81         0.00035506
  82         0.00000750
  83         0.00012971
  84         0.00000000
  85         0.00000000
Sym=     6a  
Ene=    -1.8009
Spin= Alpha
Occup=    1.00000
   1        -0.08330810
   2         0.16761485
   3         0.02322814
   4         0.02570277
   5         0.10050027
   6        -0.00000000
   7         0.00227953
   8        -0.02777649
   9        -0.00000000
  10         0.00399557
  11         0.01529936
  12        -0.00996326
  13         0.00860422
  14        -0.00000000
  15        -0.00000000
  16        -0.04453180
  17         0.08577343
  18         0.05569439
  19         0.04942187
  20         0.02186014
  21        -0.00000000
  22         0.01944716
  23         0.00974687
  24        -0.00000000
  25         0.00763576
  26         0.00267027
  27        -0.00536035
  28         0.00095378
  29        -0.00000000
  30        -0.00000000
  31        -0.04453174
  32         0.08577330
  33         0.05569411
  34         0.04941822
  35        -0.02186811
  36         0.00000000
  37         0.01944561
  38        -0.00974971
  39         0.00000000
  40         0.00763547
  41         0.00267055
  42        -0.00536035
  43        -0.00095470
  44         0.00000000
  45        -0.00000000
  46        -0.08330788
  47         0.16761440
  48         0.02322814
  49         0.02568659
  50        -0.10050414
  51        -0.00000000
  52         0.00228417
  53         0.02777565
  54        -0.00000000
  55         0.00399321
  56         0.01530179
  57        -0.00996324
  58        -0.00860208
  59        -0.00000000
  60         0.00000000
  61        -0.17071551
  62         0.36323041
  63         0.38016987
  64        -0.06923149
  65         0.00000555
  66        -0.00000000
  67        -0.05991337
  68         0.00000477
  69        -0.00000000
  70         0.01862865
  71         0.01045063
  72        -0.01364182
  73        -0.00000068
  74        -0.00000000
  75        -0.00000000
  76         0.02043196
  77        -0.01119857
  78         0.00936190
  79         0.00380026
  80         0.00936189
  81         0.00380023
  82         0.02043203
  83        -0.01119829
  84         0.07113858
  85        -0.00101722
Sym=     6a  
Ene=    -1.8009
Spin= Beta
Occup=    1.00000
   1        -0.08330810
   2         0.16761485
   3         0.02322814
   4         0.02570277
   5         0.10050027
   6        -0.00000000
   7         0.00227953
   8        -0.02777649
   9        -0.00000000
  10         0.00399557
  11         0.01529936
  12        -0.00996326
  13         0.00860422
  14        -0.00000000
  15        -0.00000000
  16        -0.04453180
  17         0.08577343
  18         0.05569439
  19         0.04942187
  20         0.02186014
  21        -0.00000000
  22         0.01944716
  23         0.00974687
  24        -0.00000000
  25         0.00763576
  26         0.00267027
  27        -0.00536035
  28         0.00095378
  29        -0.00000000
  30        -0.00000000
  31        -0.04453174
  32         0.08577330
  33         0.05569411
  34         0.04941822
  35        -0.02186811
  36         0.00000000
  37         0.01944561
  38        -0.00974971
  39         0.00000000
  40         0.00763547
  41         0.00267055
  42        -0.00536035
  43        -0.00095470
  44         0.00000000
  45        -0.00000000
  46        -0.08330788
  47         0.16761440
  48         0.02322814
  49         0.02568659
  50        -0.10050414
  51        -0.00000000
  52         0.00228417
  53         0.02777565
  54        -0.00000000
  55         0.00399321
  56         0.01530179
  57        -0.00996324
  58        -0.00860208
  59        -0.00000000
  60         0.00000000
  61        -0.17071551
  62         0.36323041
  63         0.38016987
  64        -0.06923149
  65         0.00000555
  66        -0.00000000
  67        -0.05991337
  68         0.00000477
  69        -0.00000000
  70         0.01862865
  71         0.01045063
  72        -0.01364182
  73        -0.00000068
  74        -0.00000000
  75        -0.00000000
  76         0.02043196
  77        -0.01119857
  78         0.00936190
  79         0.00380026
  80         0.00936189
  81         0.00380023
  82         0.02043203
  83        -0.01119829