[Molden Format]
[N_Atoms]
                    10
[Atoms] (AU)
C1          1      6           0.61142449     -2.12152797      0.00000000
C2          2      6          -1.87328988     -1.34697075      0.00000000
C3          3      6          -1.87307180      1.34725073      0.00000000
C4          4      6           0.61176706      2.12140667      0.00000000
N5          5      7           2.09821359     -0.00018019      0.00000000
H6          6      1           1.43781555     -3.99610323      0.00000000
H7          7      1          -3.51386973     -2.57752926      0.00000000
H8          8      1          -3.51345357      2.57807256      0.00000000
H9          9      1           1.43845985      3.99584866      0.00000000
H10        10      1           4.00030521     -0.00033301      0.00000000
[Charge] (Mulliken)
  0.000000000000000E+000
  0.000000000000000E+000
  0.000000000000000E+000
  0.000000000000000E+000
  0.000000000000000E+000
  0.000000000000000E+000
  0.000000000000000E+000
  0.000000000000000E+000
  0.000000000000000E+000
  0.000000000000000E+000
[GTO] (AU)
   1
   s   6
  3.047524880E+03  1.834737132E-03
  4.573695180E+02  1.403732281E-02
  1.039486850E+02  6.884262227E-02
  2.921015530E+01  2.321844432E-01
  9.286662960E+00  4.679413484E-01
  3.163926960E+00  3.623119853E-01
   s   3
  7.868272350E+00 -1.193324198E-01
  1.881288540E+00 -1.608541517E-01
  5.442492580E-01  1.143456438E+00
   s   1
  1.687144782E-01  1.000000000E+00
   p   3
  7.868272350E+00  6.899906659E-02
  1.881288540E+00  3.164239610E-01
  5.442492580E-01  7.443082909E-01
   p   1
  1.687144782E-01  1.000000000E+00
   d   1
  8.000000000E-01  1.000000000E+00
 
   2
   s   6
  3.047524880E+03  1.834737132E-03
  4.573695180E+02  1.403732281E-02
  1.039486850E+02  6.884262227E-02
  2.921015530E+01  2.321844432E-01
  9.286662960E+00  4.679413484E-01
  3.163926960E+00  3.623119853E-01
   s   3
  7.868272350E+00 -1.193324198E-01
  1.881288540E+00 -1.608541517E-01
  5.442492580E-01  1.143456438E+00
   s   1
  1.687144782E-01  1.000000000E+00
   p   3
  7.868272350E+00  6.899906659E-02
  1.881288540E+00  3.164239610E-01
  5.442492580E-01  7.443082909E-01
   p   1
  1.687144782E-01  1.000000000E+00
   d   1
  8.000000000E-01  1.000000000E+00
 
   3
   s   6
  3.047524880E+03  1.834737132E-03
  4.573695180E+02  1.403732281E-02
  1.039486850E+02  6.884262227E-02
  2.921015530E+01  2.321844432E-01
  9.286662960E+00  4.679413484E-01
  3.163926960E+00  3.623119853E-01
   s   3
  7.868272350E+00 -1.193324198E-01
  1.881288540E+00 -1.608541517E-01
  5.442492580E-01  1.143456438E+00
   s   1
  1.687144782E-01  1.000000000E+00
   p   3
  7.868272350E+00  6.899906659E-02
  1.881288540E+00  3.164239610E-01
  5.442492580E-01  7.443082909E-01
   p   1
  1.687144782E-01  1.000000000E+00
   d   1
  8.000000000E-01  1.000000000E+00
 
   4
   s   6
  3.047524880E+03  1.834737132E-03
  4.573695180E+02  1.403732281E-02
  1.039486850E+02  6.884262227E-02
  2.921015530E+01  2.321844432E-01
  9.286662960E+00  4.679413484E-01
  3.163926960E+00  3.623119853E-01
   s   3
  7.868272350E+00 -1.193324198E-01
  1.881288540E+00 -1.608541517E-01
  5.442492580E-01  1.143456438E+00
   s   1
  1.687144782E-01  1.000000000E+00
   p   3
  7.868272350E+00  6.899906659E-02
  1.881288540E+00  3.164239610E-01
  5.442492580E-01  7.443082909E-01
   p   1
  1.687144782E-01  1.000000000E+00
   d   1
  8.000000000E-01  1.000000000E+00
 
   5
   s   6
  4.173511460E+03  1.834772160E-03
  6.274579110E+02  1.399462700E-02
  1.429020930E+02  6.858655181E-02
  4.023432930E+01  2.322408730E-01
  1.282021290E+01  4.690699481E-01
  4.390437010E+00  3.604551991E-01
   s   3
  1.162636186E+01 -1.149611817E-01
  2.716279807E+00 -1.691174786E-01
  7.722183966E-01  1.145851947E+00
   s   1
  2.120314975E-01  1.000000000E+00
   p   3
  1.162636186E+01  6.757974388E-02
  2.716279807E+00  3.239072959E-01
  7.722183966E-01  7.408951398E-01
   p   1
  2.120314975E-01  1.000000000E+00
   d   1
  8.000000000E-01  1.000000000E+00
 
   6
   s   3
  1.873113696E+01  3.349460434E-02
  2.825394365E+00  2.347269535E-01
  6.401216923E-01  8.137573261E-01
   s   1
  1.612777588E-01  1.000000000E+00
 
   7
   s   3
  1.873113696E+01  3.349460434E-02
  2.825394365E+00  2.347269535E-01
  6.401216923E-01  8.137573261E-01
   s   1
  1.612777588E-01  1.000000000E+00
 
   8
   s   3
  1.873113696E+01  3.349460434E-02
  2.825394365E+00  2.347269535E-01
  6.401216923E-01  8.137573261E-01
   s   1
  1.612777588E-01  1.000000000E+00
 
   9
   s   3
  1.873113696E+01  3.349460434E-02
  2.825394365E+00  2.347269535E-01
  6.401216923E-01  8.137573261E-01
   s   1
  1.612777588E-01  1.000000000E+00
 
  10
   s   3
  1.873113696E+01  3.349460434E-02
  2.825394365E+00  2.347269535E-01
  6.401216923E-01  8.137573261E-01
   s   1
  1.612777588E-01  1.000000000E+00
 
[MO]
Sym=     1a  
Ene=   -15.6440
Spin= Alpha
Occup=    2.00000
   1         0.00116773
   2         0.00100368
   3         0.00109246
   4         0.00081335
   5         0.00117627
   6        -0.00000000
   7         0.00050794
   8         0.00073458
   9        -0.00000000
  10         0.00000000
  11        -0.00000000
  12        -0.00000000
  13        -0.00000000
  14        -0.00000000
  15        -0.00000000
  16         0.00018421
  17         0.00016981
  18         0.00018512
  19         0.00029208
  20         0.00010502
  21        -0.00000000
  22         0.00018240
  23         0.00006558
  24         0.00000000
  25        -0.00000000
  26         0.00000000
  27         0.00000000
  28        -0.00000000
  29         0.00000000
  30        -0.00000000
  31         0.00018421
  32         0.00016981
  33         0.00018512
  34         0.00029206
  35        -0.00010506
  36         0.00000000
  37         0.00018239
  38        -0.00006561
  39        -0.00000000
  40        -0.00000000
  41         0.00000000
  42         0.00000000
  43         0.00000000
  44        -0.00000000
  45        -0.00000000
  46         0.00116773
  47         0.00100368
  48         0.00109246
  49         0.00081316
  50        -0.00117640
  51        -0.00000000
  52         0.00050782
  53        -0.00073466
  54         0.00000000
  55         0.00000000
  56        -0.00000000
  57        -0.00000000
  58         0.00000000
  59        -0.00000000
  60         0.00000000
  61         0.99433762
  62         0.01996197
  63         0.00193690
  64        -0.00002070
  65         0.00000000
  66        -0.00000000
  67        -0.00001202
  68         0.00000000
  69         0.00000000
  70         0.00000000
  71        -0.00000000
  72         0.00000000
  73        -0.00000000
  74        -0.00000000
  75         0.00000000
  76         0.00014444
  77         0.00016127
  78         0.00000651
  79         0.00000727
  80         0.00000651
  81         0.00000727
  82         0.00014444
  83         0.00016127
  84         0.00128076
  85         0.00143004
Sym=     2a  
Ene=   -11.3550
Spin= Alpha
Occup=    2.00000
   1         0.42698842
   2         0.00914214
   3         0.00103867
   4        -0.00147213
   5         0.00089412
   6         0.00000000
   7        -0.00091934
   8         0.00055838
   9        -0.00000000
  10         0.00000000
  11        -0.00000000
  12         0.00000000
  13        -0.00000000
  14        -0.00000000
  15        -0.00000000
  16         0.55684512
  17         0.01202963
  18         0.00147387
  19         0.00116805
  20         0.00113456
  21        -0.00000000
  22         0.00072945
  23         0.00070853
  24         0.00000000
  25        -0.00000000
  26        -0.00000000
  27        -0.00000000
  28        -0.00000000
  29         0.00000000
  30        -0.00000000
  31         0.55684598
  32         0.01202965
  33         0.00147387
  34         0.00116787
  35        -0.00113475
  36        -0.00000000
  37         0.00072933
  38        -0.00070865
  39         0.00000000
  40        -0.00000000
  41         0.00000000
  42         0.00000000
  43         0.00000000
  44         0.00000000
  45         0.00000000
  46         0.42698959
  47         0.00914216
  48         0.00103867
  49        -0.00147227
  50        -0.00089388
  51         0.00000000
  52        -0.00091943
  53        -0.00055823
  54        -0.00000000
  55         0.00000000
  56         0.00000000
  57         0.00000000
  58         0.00000000
  59         0.00000000
  60        -0.00000000
  61        -0.00359653
  62         0.00191784
  63         0.00208216
  64        -0.00189092
  65         0.00000016
  66        -0.00000000
  67        -0.00109738
  68         0.00000009
  69         0.00000000
  70        -0.00000000
  71        -0.00000000
  72        -0.00000000
  73        -0.00000000
  74         0.00000000
  75        -0.00000000
  76         0.00094003
  77         0.00104959
  78         0.00127535
  79         0.00142400
  80         0.00127536
  81         0.00142400
  82         0.00094003
  83         0.00104959
  84         0.00024448
  85         0.00027297
Sym=     3a  
Ene=   -11.3440
Spin= Alpha
Occup=    2.00000
   1        -0.58705102
   2        -0.01127868
   3         0.00000878
   4         0.00079178
   5         0.00015326
   6        -0.00000000
   7         0.00049447
   8         0.00009571
   9         0.00000000
  10        -0.00000000
  11        -0.00000000
  12         0.00000000
  13         0.00000000
  14         0.00000000
  15         0.00000000
  16        -0.38692846
  17        -0.00741827
  18         0.00002312
  19        -0.00120512
  20         0.00151921
  21         0.00000000
  22        -0.00075260
  23         0.00094875
  24        -0.00000000
  25        -0.00000000
  26         0.00000000
  27        -0.00000000
  28         0.00000000
  29        -0.00000000
  30         0.00000000
  31         0.38692695
  32         0.00741824
  33        -0.00002312
  34         0.00120537
  35         0.00151902
  36         0.00000000
  37         0.00075275
  38         0.00094863
  39        -0.00000000
  40         0.00000000
  41        -0.00000000
  42         0.00000000
  43         0.00000000
  44        -0.00000000
  45         0.00000000
  46         0.58705060
  47         0.01127867
  48        -0.00000878
  49        -0.00079175
  50         0.00015339
  51        -0.00000000
  52        -0.00049445
  53         0.00009579
  54         0.00000000
  55         0.00000000
  56         0.00000000
  57        -0.00000000
  58         0.00000000
  59         0.00000000
  60         0.00000000
  61        -0.00000000
  62         0.00000000
  63         0.00000000
  64         0.00000022
  65         0.00273303
  66         0.00000000
  67         0.00000013
  68         0.00158610
  69        -0.00000000
  70        -0.00000000
  71        -0.00000000
  72        -0.00000000
  73        -0.00000000
  74        -0.00000000
  75        -0.00000000
  76        -0.00119562
  77        -0.00133497
  78        -0.00079160
  79        -0.00088386
  80         0.00079160
  81         0.00088386
  82         0.00119562
  83         0.00133497
  84         0.00000000
  85         0.00000000
Sym=     4a  
Ene=   -11.3350
Spin= Alpha
Occup=    2.00000
   1         0.55864765
   2         0.00967653
   3        -0.00118456
   4         0.00111159
   5        -0.00018557
   6        -0.00000000
   7         0.00069419
   8        -0.00011589
   9        -0.00000000
  10        -0.00000000
  11        -0.00000000
  12         0.00000000
  13         0.00000000
  14        -0.00000000
  15        -0.00000000
  16        -0.42838770
  17        -0.00750072
  18         0.00081877
  19         0.00146352
  20        -0.00114346
  21         0.00000000
  22         0.00091397
  23        -0.00071409
  24         0.00000000
  25         0.00000000
  26        -0.00000000
  27        -0.00000000
  28        -0.00000000
  29         0.00000000
  30         0.00000000
  31        -0.42838800
  32        -0.00750072
  33         0.00081877
  34         0.00146371
  35         0.00114323
  36         0.00000000
  37         0.00091409
  38         0.00071394
  39        -0.00000000
  40        -0.00000000
  41         0.00000000
  42         0.00000000
  43         0.00000000
  44        -0.00000000
  45        -0.00000000
  46         0.55864715
  47         0.00967652
  48        -0.00118456
  49         0.00111162
  50         0.00018539
  51        -0.00000000
  52         0.00069421
  53         0.00011577
  54         0.00000000
  55         0.00000000
  56        -0.00000000
  57        -0.00000000
  58         0.00000000
  59        -0.00000000
  60        -0.00000000
  61        -0.00321506
  62         0.00190665
  63         0.00206312
  64        -0.00137820
  65         0.00000011
  66         0.00000000
  67        -0.00079983
  68         0.00000006
  69        -0.00000000
  70        -0.00000000
  71        -0.00000000
  72        -0.00000000
  73         0.00000000
  74         0.00000000
  75        -0.00000000
  76         0.00099248
  77         0.00110816
  78        -0.00077719
  79        -0.00086778
  80        -0.00077720
  81        -0.00086778
  82         0.00099248
  83         0.00110815
  84         0.00028737
  85         0.00032087
Sym=     5a  
Ene=   -11.3290
Spin= Alpha
Occup=    2.00000
   1        -0.38776035
   2        -0.00624395
   3         0.00134837
   4        -0.00121190
   5         0.00037943
   6         0.00000000
   7        -0.00075683
   8         0.00023695
   9         0.00000000
  10        -0.00000000
  11        -0.00000000
  12         0.00000000
  13        -0.00000000
  14         0.00000000
  15         0.00000000
  16         0.58836776
  17         0.00945009
  18        -0.00207284
  19        -0.00078550
  20        -0.00088180
  21         0.00000000
  22        -0.00049055
  23        -0.00055069
  24         0.00000000
  25         0.00000000
  26         0.00000000
  27        -0.00000000
  28        -0.00000000
  29        -0.00000000
  30        -0.00000000
  31        -0.58836772
  32        -0.00945009
  33         0.00207284
  34         0.00078536
  35        -0.00088193
  36         0.00000000
  37         0.00049046
  38        -0.00055077
  39        -0.00000000
  40        -0.00000000
  41        -0.00000000
  42        -0.00000000
  43         0.00000000
  44         0.00000000
  45         0.00000000
  46         0.38776042
  47         0.00624395
  48        -0.00134837
  49         0.00121196
  50         0.00037923
  51         0.00000000
  52         0.00075687
  53         0.00023683
  54         0.00000000
  55         0.00000000
  56         0.00000000
  57         0.00000000
  58         0.00000000
  59        -0.00000000
  60        -0.00000000
  61        -0.00000000
  62         0.00000000
  63         0.00000000
  64         0.00000013
  65         0.00156896
  66        -0.00000000
  67         0.00000007
  68         0.00091054
  69        -0.00000000
  70        -0.00000000
  71        -0.00000000
  72        -0.00000000
  73         0.00000000
  74         0.00000000
  75        -0.00000000
  76        -0.00063053
  77        -0.00070402
  78         0.00093155
  79         0.00104012
  80        -0.00093155
  81        -0.00104012
  82         0.00063053
  83         0.00070402
  84         0.00000000
  85         0.00000000
Sym=     6a  
Ene=    -1.8642
Spin= Alpha
Occup=    2.00000
   1        -0.10601087
   2         0.11858178
   3         0.13429329
   4        -0.00322818
   5         0.05889166
   6        -0.00000000
   7        -0.00201600
   8         0.03677781
   9         0.00000000
  10        -0.00000000
  11         0.00000000
  12        -0.00000000
  13         0.00000000
  14         0.00000000
  15         0.00000000
  16        -0.08905652
  17         0.10113164
  18         0.11450210
  19         0.04668323
  20         0.02994413
  21         0.00000000
  22         0.02915365
  23         0.01870009
  24        -0.00000000
  25         0.00000000
  26         0.00000000
  27         0.00000000
  28         0.00000000
  29        -0.00000000
  30         0.00000000
  31        -0.08905656
  32         0.10113168
  33         0.11450215
  34         0.04667840
  35        -0.02995165
  36        -0.00000000
  37         0.02915064
  38        -0.01870479
  39        -0.00000000
  40        -0.00000000
  41        -0.00000000
  42         0.00000000
  43        -0.00000000
  44         0.00000000
  45        -0.00000000
  46        -0.10601095
  47         0.11858184
  48         0.13429335
  49        -0.00323768
  50        -0.05889114
  51        -0.00000000
  52        -0.00202193
  53        -0.03677749
  54         0.00000000
  55        -0.00000000
  56         0.00000000
  57        -0.00000000
  58        -0.00000000
  59         0.00000000
  60         0.00000000
  61        -0.13111894
  62         0.19222236
  63         0.20430536
  64        -0.05762750
  65         0.00000467
  66         0.00000000
  67        -0.03344382
  68         0.00000271
  69        -0.00000000
  70         0.00000000
  71         0.00000000
  72         0.00000000
  73         0.00000000
  74         0.00000000
  75         0.00000000
  76         0.03334526
  77         0.03723170
  78         0.02610066
  79         0.02914274
  80         0.02610068
  81         0.02914276
  82         0.03334528
  83         0.03723173
  84         0.05019532
  85         0.05604567
Sym=     7a  
Ene=    -1.3369
Spin= Alpha
Occup=    2.00000
   1        -0.00686600
   2         0.00846449
   3         0.00957098
   4         0.10836779
   5         0.01243680
   6        -0.00000000
   7         0.06767563
   8         0.00776677
   9         0.00000000
  10        -0.00000000
  11         0.00000000
  12        -0.00000000
  13         0.00000000
  14         0.00000000
  15        -0.00000000
  16         0.11618701
  17        -0.15126829
  18        -0.17090293
  19         0.03580245
  20        -0.03220545
  21         0.00000000
  22         0.02235861
  23        -0.02011229
  24        -0.00000000
  25        -0.00000000
  26        -0.00000000
  27        -0.00000000
  28         0.00000000
  29         0.00000000
  30         0.00000000
  31         0.11618698
  32        -0.15126823
  33        -0.17090286
  34         0.03580774
  35         0.03219971
  36        -0.00000000
  37         0.02236191
  38         0.02010870
  39         0.00000000
  40        -0.00000000
  41        -0.00000000
  42        -0.00000000
  43        -0.00000000
  44         0.00000000
  45         0.00000000
  46        -0.00686613
  47         0.00846465
  48         0.00957117
  49         0.10836583
  50        -0.01245427
  51         0.00000000
  52         0.06767440
  53        -0.00777768
  54        -0.00000000
  55        -0.00000000
  56         0.00000000
  57        -0.00000000
  58        -0.00000000
  59         0.00000000
  60         0.00000000
  61        -0.12197169
  62         0.20584696
  63         0.21843366
  64         0.09008122
  65        -0.00000717
  66         0.00000000
  67         0.05227817
  68        -0.00000416
  69        -0.00000000
  70         0.00000000
  71         0.00000000
  72         0.00000000
  73        -0.00000000
  74        -0.00000000
  75        -0.00000000
  76         0.01620101
  77         0.01808926
  78        -0.07555415
  79        -0.08436012
  80        -0.07555417
  81        -0.08436014
  82         0.01620109
  83         0.01808935
  84         0.09973852
  85         0.11136322
Sym=     8a  
Ene=    -1.2555
Spin= Alpha
Occup=    2.00000
   1         0.12468766
   2        -0.16545135
   3        -0.18687573
   4         0.01268217
   5         0.04903239
   6         0.00000000
   7         0.00792001
   8         0.03062070
   9         0.00000000
  10        -0.00000000
  11        -0.00000000
  12        -0.00000000
  13         0.00000000
  14        -0.00000000
  15        -0.00000000
  16         0.07449205
  17        -0.10006622
  18        -0.11300415
  19        -0.03294121
  20         0.08569670
  21        -0.00000000
  22        -0.02057177
  23         0.05351754
  24        -0.00000000
  25         0.00000000
  26        -0.00000000
  27        -0.00000000
  28        -0.00000000
  29         0.00000000
  30         0.00000000
  31        -0.07449213
  32         0.10006632
  33         0.11300426
  34         0.03295497
  35         0.08569139
  36        -0.00000000
  37         0.02058036
  38         0.05351423
  39         0.00000000
  40        -0.00000000
  41        -0.00000000
  42        -0.00000000
  43        -0.00000000
  44         0.00000000
  45        -0.00000000
  46        -0.12468763
  47         0.16545129
  48         0.18687566
  49        -0.01267436
  50         0.04903453
  51         0.00000000
  52        -0.00791513
  53         0.03062204
  54        -0.00000000
  55         0.00000000
  56        -0.00000000
  57         0.00000000
  58         0.00000000
  59         0.00000000
  60         0.00000000
  61         0.00000007
  62        -0.00000013
  63        -0.00000013
  64         0.00001259
  65         0.15632926
  66        -0.00000000
  67         0.00000731
  68         0.09072488
  69         0.00000000
  70        -0.00000000
  71         0.00000000
  72        -0.00000000
  73        -0.00000000
  74        -0.00000000
  75         0.00000000
  76        -0.09582888
  77        -0.10699791
  78        -0.05861972
  79        -0.06545195
  80         0.05861978
  81         0.06545201
  82         0.09582888
  83         0.10699791
  84        -0.00000003
  85        -0.00000004
Sym=     9a  
Ene=    -0.9357
Spin= Alpha
Occup=    2.00000
   1         0.04262689
   2        -0.04435095
   3        -0.05029098
   4         0.04415280
   5        -0.07006245
   6         0.00000000
   7         0.02757340
   8        -0.04375397
   9        -0.00000000
  10        -0.00000000
  11        -0.00000000
  12        -0.00000000
  13        -0.00000000
  14         0.00000000
  15         0.00000000
  16        -0.03493435
  17         0.06782454
  18         0.07626084
  19        -0.17097475
  20        -0.02583061
  21         0.00000000
  22        -0.10677364
  23        -0.01613120
  24         0.00000000
  25         0.00000000
  26        -0.00000000
  27         0.00000000
  28        -0.00000000
  29        -0.00000000
  30        -0.00000000
  31        -0.03493407
  32         0.06782413
  33         0.07626038
  34        -0.17097049
  35         0.02585793
  36         0.00000000
  37        -0.10677098
  38         0.01614826
  39         0.00000000
  40        -0.00000000
  41         0.00000000
  42        -0.00000000
  43         0.00000000
  44         0.00000000
  45        -0.00000000
  46         0.04262681
  47        -0.04435083
  48        -0.05029083
  49         0.04416456
  50         0.07005534
  51        -0.00000000
  52         0.02758074
  53         0.04374953
  54        -0.00000000
  55        -0.00000000
  56        -0.00000000
  57        -0.00000000
  58         0.00000000
  59        -0.00000000
  60        -0.00000000
  61        -0.03764241
  62         0.08238459
  63         0.08720835
  64         0.28660306
  65        -0.00002280
  66         0.00000000
  67         0.16632862
  68        -0.00001323
  69         0.00000000
  70         0.00000000
  71         0.00000000
  72         0.00000000
  73        -0.00000000
  74         0.00000000
  75         0.00000000
  76         0.01807956
  77         0.02018677
  78         0.11284378
  79         0.12599592
  80         0.11284348
  81         0.12599559
  82         0.01807973
  83         0.02018695
  84         0.13733324
  85         0.15333967
Sym=    10a  
Ene=    -0.9163
Spin= Alpha
Occup=    2.00000
   1         0.04686508
   2        -0.06430002
   3        -0.07259216
   4        -0.14875693
   5         0.01024071
   6         0.00000000
   7        -0.09289863
   8         0.00639532
   9        -0.00000000
  10        -0.00000000
  11        -0.00000000
  12         0.00000000
  13        -0.00000000
  14         0.00000000
  15        -0.00000000
  16        -0.08953376
  17         0.12935168
  18         0.14593136
  19        -0.05871792
  20        -0.10879785
  21         0.00000000
  22        -0.03666931
  23        -0.06794420
  24         0.00000000
  25         0.00000000
  26         0.00000000
  27        -0.00000000
  28        -0.00000000
  29        -0.00000000
  30        -0.00000000
  31         0.08953389
  32        -0.12935187
  33        -0.14593157
  34         0.05870100
  35        -0.10880689
  36        -0.00000000
  37         0.03665874
  38        -0.06794985
  39         0.00000000
  40        -0.00000000
  41        -0.00000000
  42         0.00000000
  43         0.00000000
  44        -0.00000000
  45         0.00000000
  46        -0.04686545
  47         0.06430052
  48         0.07259273
  49         0.14875835
  50         0.01021711
  51         0.00000000
  52         0.09289951
  53         0.00638058
  54        -0.00000000
  55        -0.00000000
  56        -0.00000000
  57        -0.00000000
  58         0.00000000
  59         0.00000000
  60        -0.00000000
  61         0.00000017
  62        -0.00000034
  63        -0.00000036
  64         0.00001812
  65         0.22963458
  66        -0.00000000
  67         0.00001051
  68         0.13326725
  69         0.00000000
  70        -0.00000000
  71        -0.00000000
  72        -0.00000000
  73         0.00000000
  74         0.00000000
  75         0.00000000
  76        -0.06999915
  77        -0.07815767
  78         0.12773880
  79         0.14262699
  80        -0.12773902
  81        -0.14262722
  82         0.06999954
  83         0.07815811
  84        -0.00000024
  85        -0.00000027
Sym=    11a  
Ene=    -0.9024
Spin= Alpha
Occup=    2.00000
   1        -0.07606712
   2         0.12448283
   3         0.14022231
   4        -0.00089677
   5        -0.18378832
   6        -0.00000000
   7        -0.00056003
   8        -0.11477571
   9         0.00000000
  10         0.00000000
  11         0.00000000
  12         0.00000000
  13         0.00000000
  14        -0.00000000
  15         0.00000000
  16         0.02331376
  17        -0.02414669
  18        -0.02738297
  19         0.04243868
  20        -0.13248712
  21        -0.00000000
  22         0.02650294
  23        -0.08273813
  24        -0.00000000
  25        -0.00000000
  26        -0.00000000
  27        -0.00000000
  28        -0.00000000
  29        -0.00000000
  30         0.00000000
  31         0.02331347
  32        -0.02414626
  33        -0.02738248
  34         0.04245992
  35         0.13248063
  36        -0.00000000
  37         0.02651620
  38         0.08273408
  39        -0.00000000
  40        -0.00000000
  41        -0.00000000
  42         0.00000000
  43         0.00000000
  44        -0.00000000
  45         0.00000000
  46        -0.07606695
  47         0.12448256
  48         0.14022202
  49        -0.00086766
  50         0.18378843
  51        -0.00000000
  52        -0.00054185
  53         0.11477578
  54         0.00000000
  55         0.00000000
  56        -0.00000000
  57        -0.00000000
  58        -0.00000000
  59         0.00000000
  60        -0.00000000
  61         0.06264541
  62        -0.11085116
  63        -0.11757115
  64         0.00365871
  65        -0.00000067
  66        -0.00000000
  67         0.00212332
  68        -0.00000039
  69        -0.00000000
  70        -0.00000000
  71        -0.00000000
  72        -0.00000000
  73        -0.00000000
  74        -0.00000000
  75         0.00000000
  76         0.15506368
  77         0.17313662
  78         0.01045966
  79         0.01167875
  80         0.01046000
  81         0.01167914
  82         0.15506343
  83         0.17313634
  84        -0.03393959
  85        -0.03789531
Sym=    12a  
Ene=    -0.7819
Spin= Alpha
Occup=    2.00000
   1         0.00000000
   2        -0.00000000
   3         0.00000000
   4        -0.00000000
   5        -0.00000000
   6         0.21867521
   7        -0.00000000
   8        -0.00000000
   9         0.13656256
  10         0.00000000
  11        -0.00000000
  12         0.00000000
  13        -0.00000000
  14        -0.00000000
  15        -0.00000000
  16         0.00000000
  17         0.00000000
  18        -0.00000000
  19         0.00000000
  20        -0.00000000
  21         0.19227393
  22        -0.00000000
  23        -0.00000000
  24         0.12007497
  25         0.00000000
  26         0.00000000
  27         0.00000000
  28        -0.00000000
  29        -0.00000000
  30        -0.00000000
  31        -0.00000000
  32        -0.00000000
  33         0.00000000
  34         0.00000000
  35         0.00000000
  36         0.19227400
  37         0.00000000
  38        -0.00000000
  39         0.12007501
  40         0.00000000
  41        -0.00000000
  42        -0.00000000
  43        -0.00000000
  44        -0.00000000
  45        -0.00000000
  46         0.00000000
  47        -0.00000000
  48        -0.00000000
  49        -0.00000000
  50         0.00000000
  51         0.21867532
  52         0.00000000
  53         0.00000000
  54         0.13656262
  55         0.00000000
  56         0.00000000
  57         0.00000000
  58        -0.00000000
  59         0.00000000
  60        -0.00000000
  61        -0.00000000
  62        -0.00000000
  63         0.00000000
  64         0.00000000
  65         0.00000000
  66         0.36762452
  67        -0.00000000
  68         0.00000000
  69         0.21334901
  70        -0.00000000
  71        -0.00000000
  72        -0.00000000
  73        -0.00000000
  74         0.00000000
  75        -0.00000000
  76         0.00000000
  77        -0.00000000
  78        -0.00000000
  79        -0.00000000
  80         0.00000000
  81         0.00000000
  82        -0.00000000
  83        -0.00000000