[Molden Format]
made by pyscf v[2.13.1]
[Atoms] (AU)
O   1   8     0.21099695469856     0.00000000000000     2.15462460678861
N   2   7    -0.44776862100326     0.00000000000000    -0.03589262653049
H   3   1     1.18163474748449     0.00000000000000    -1.17386889907833
[GTO]
1 0
 s    8 1.00
                 11720  0.00070964594651845
                  1759  0.0054672722921914
                 400.8   0.027823118610189
                 113.7    0.10474773971146
                 37.03    0.28292084635691
                 13.27    0.44849523869833
                 5.025    0.27081688521277
                 1.013    0.01545029160744
 s    8 1.00
                 11720  -0.00031444341168873
                  1759  -0.0024821376810179
                 400.8  -0.012316355381583
                 113.7  -0.050538917343672
                 37.03   -0.13938490331632
                 13.27   -0.32507749481778
                 5.025   -0.22984830758785
                 1.013     1.0953793467883
 s    1 1.00
                0.3023                   1
 s    1 1.00
               0.07896                   1
 p    3 1.00
                  17.7   0.062679166281506
                 3.854    0.33353656587936
                 1.046    0.74123964163973
 p    1 1.00
                0.2753                   1
 p    1 1.00
               0.06856                   1
 d    1 1.00
                 1.185                   1
 d    1 1.00
                 0.332                   1

2 0
 s    8 1.00
                  9046  0.00069961741342552
                  1357  0.0053860546299287
                 309.3   0.027391021189057
                 87.73    0.10315059198201
                 28.56    0.27857066331743
                 10.21    0.44829484945412
                 3.838    0.27808592839527
                0.7466   0.015431561233271
 s    8 1.00
                  9046  -0.00030499009595337
                  1357  -0.0024080263785077
                 309.3   -0.01194444872518
                 87.73  -0.048925992909017
                 28.56   -0.13447272472496
                 10.21   -0.31511257770011
                 3.838   -0.24285783254964
                0.7466     1.0943822068542
 s    1 1.00
                0.2248                   1
 s    1 1.00
               0.06124                   1
 p    3 1.00
                 13.55   0.058905676772132
                 2.917    0.32046110671427
                0.7973    0.75304206179207
 p    1 1.00
                0.2185                   1
 p    1 1.00
               0.05611                   1
 d    1 1.00
                 0.817                   1
 d    1 1.00
                  0.23                   1

3 0
 s    3 1.00
                 13.01   0.033498726389998
                 1.962    0.23480080117413
                0.4446     0.8136829578829
 s    1 1.00
                 0.122                   1
 s    1 1.00
               0.02974                   1
 p    1 1.00
                 0.727                   1
 p    1 1.00
                 0.141                   1

[5d]
[7f]
[9g]

[MO]
 Sym= A
 Ene=               0
 Spin= Alpha
 Occup=    1.97103
   1    -8.8027215505514e-05
   2    -0.0081899437978962
   3    -0.029139287802125
   4    -0.067557618508806
   5      0.54329340524833
   6    -6.7783548151189e-09
   7     -0.10528261397672
   8      0.42151602974606
   9    -5.6925862713187e-09
  10     -0.06704343882468
  11     0.067971982616823
  12    -1.6054652355712e-09
  13    0.0086085399198358
  14    -0.00095388753933758
  15    -0.0030905767179166
  16    -1.4224223964099e-10
  17    -0.00070508599455053
  18    -1.7585170990593e-11
  19    0.0024169581633174
  20    -0.018013282038631
  21    6.5620194151129e-11
  22    -0.0062497479507574
  23    -1.1351400774697e-11
  24    0.0038051218466938
  25      0.11955753774015
  26      0.28035580279114
  27      0.15311556716023
  28     -0.35661525283552
  29    9.224655291742e-09
  30    -0.031890544033249
  31     -0.25617731857015
  32    7.4730457926173e-09
  33    0.0047284264188543
  34    -0.029915537510105
  35    1.5339496429458e-09
  36     0.014811892207324
  37    -0.012524972737264
  38     0.024149031585126
  39    -2.385945394212e-10
  40    -0.0046315543903883
  41    1.1503007960217e-10
  42     0.013732067392893
  43    -0.0069460907479642
  44    -1.5626003804119e-10
  45    -0.0057283724417709
  46    2.2350754757118e-10
  47     -0.25502651585334
  48      -0.1303779181951
  49    -0.065981350723828
  50     0.010824879154574
  51    3.6151685622199e-10
  52    -0.015467464102329
  53    -0.0040581923353733
  54    1.8189742960311e-10
  55     0.017575805982275
 Sym= A
 Ene=               1
 Spin= Alpha
 Occup=    1.97103
   1    4.9613324588215e-11
   2    2.272324335207e-09
   3    4.5043117863999e-09
   4    5.4380401720633e-09
   5    -6.4653205142151e-10
   6     -0.42316710499946
   7    4.0116256513858e-09
   8    -1.8536247057711e-09
   9     -0.35558097346953
  10    1.4566274917539e-09
  11    -1.6087016347297e-09
  12    -0.098895166798425
  13    -9.3220518012797e-10
  14    2.3480588800577e-11
  15    -4.385705341652e-10
  16    -0.0087036915558878
  17    -1.34316389841e-10
  18    -0.0024279212467707
  19    2.1666184213265e-10
  20    -3.1299398794252e-10
  21    0.0046014617808267
  22    -3.6507014363211e-11
  23    -0.0022111842565955
  24    -1.2738649846336e-10
  25    -4.6662420397307e-09
  26    -8.0351734179889e-09
  27    -5.6541725949085e-09
  28    1.3700915575834e-08
  29      0.57808672346065
  30    -3.8786735639562e-09
  31    7.7018085658696e-09
  32      0.46882596594222
  33    -2.0756750601782e-09
  34    4.0123791538566e-10
  35     0.096892969003331
  36    -2.589446309239e-09
  37    -3.0799511950953e-10
  38    -1.5089809930933e-10
  39    -0.014034360659844
  40    3.7872995303875e-10
  41    0.0070952020764893
  42    -1.6616421498425e-10
  43    -1.673307218272e-11
  44    -0.0087279979836632
  45    -1.0284247364685e-10
  46     0.014754483922493
  47    8.6145431158091e-09
  48    1.4299435610855e-09
  49    -1.4067350424324e-09
  50    -6.0513604363217e-10
  51     0.023297378468919
  52    6.5886833275113e-10
  53    6.9222402409108e-14
  54     0.011632287920478
  55    -1.8548482979267e-10
 Sym= A
 Ene=               2
 Spin= Alpha
 Occup=    0.01715
   1    -3.5509930952286e-11
   2    -3.1831813914603e-09
   3    -1.4354908471677e-08
   4    -9.5287335766369e-08
   5    -1.0073073779944e-08
   6     -0.42316710499946
   7    5.8426943184236e-09
   8    -6.4696689638904e-09
   9     -0.35558097346953
  10    1.1922223421049e-08
  11    1.2644257445514e-08
  12    -0.098895166798425
  13    2.5314307449804e-08
  14        3.46799622e-10
  15    -1.4249114853334e-11
  16    -0.0087036915558878
  17    -6.4614693720844e-11
  18    -0.0024279212467707
  19    -1.0604239969697e-09
  20    -3.9547637970074e-10
  21    0.0046014617808267
  22    -1.1089321311981e-10
  23    -0.0022111842565955
  24    2.2150383700288e-10
  25    4.0173525917504e-09
  26    1.9268102406359e-08
  27    1.018699531106e-07
  28    1.3907155878955e-08
  29      0.57808672346065
  30    2.7934285031618e-10
  31    1.3279623738142e-08
  32      0.46882596594222
  33    1.0896883649992e-08
  34    9.3470356267365e-09
  35     0.096892969003331
  36    5.2546657533353e-08
  37    -4.873828883522e-10
  38    -3.4446861179382e-10
  39    -0.014034360659844
  40    1.8360988913672e-10
  41    0.0070952020764893
  42    8.1993695569735e-10
  43    2.0746689624009e-09
  44    -0.0087279979836632
  45    1.0621601510012e-10
  46     0.014754483922493
  47    1.4670442956778e-09
  48    -7.0412445719291e-09
  49    -3.3351990543492e-08
  50    -8.1667121819312e-10
  51     0.023297378468919
  52    1.3148156401789e-09
  53    -4.6213518973811e-09
  54     0.011632287920478
  55    5.569762944979e-09
 Sym= A
 Ene=               3
 Spin= Alpha
 Occup=    0.01715
   1    -0.00033210635770193
   2    0.00027692475502675
   3     0.013522260640895
   4     0.015625269838136
   5     -0.42824209614266
   6    7.4137759800962e-09
   7    -0.00075807968753705
   8     -0.34418749493961
   9    6.3375464615033e-09
  10     0.002124215145162
  11     -0.05627923821804
  12    1.8692433479694e-09
  13    0.0027664221772191
  14    0.0068031913258815
  15    -0.0007426839685141
  16    1.9694010651029e-10
  17    -0.0008138719986749
  18    3.6543623164033e-11
  19    0.0048469325944995
  20     0.011246376951058
  21    -3.8239708654781e-11
  22    0.0047399544084026
  23    3.1551192555598e-11
  24    -0.0042867428647892
  25     -0.15195327819352
  26      -0.3371633888039
  27    -0.094767657330673
  28      0.47063900964217
  29    -1.1406014843693e-08
  30     0.082171322790488
  31      0.30949543197854
  32    -9.1087496237862e-09
  33     0.017190253630681
  34      0.03789137814929
  35    -1.8419571334225e-09
  36     0.010799703140417
  37     0.011303217299583
  38    -0.012833520300755
  39    2.3950193910112e-10
  40    0.0088687536296982
  41    -1.5409326446126e-10
  42    -0.013328572814233
  43    0.0064409252878065
  44    1.9760502715285e-10
  45    0.0054741423855322
  46    -2.7489401355385e-10
  47      0.26370802992857
  48      0.10892631734768
  49     0.033102761132196
  50    -0.011151407621991
  51    -4.4584991089355e-10
  52     0.019837322484491
  53    0.0039863652841969
  54    -2.1207015361716e-10
  55    -0.014760584856914
 Sym= A
 Ene=               4
 Spin= Alpha
 Occup=    0.00000
   1    0.00079981194786296
   2    -0.035013740190216
   3     -0.20476610935063
   4      -1.5904779406378
   5    -0.027859195378239
   6    1.8425163247309e-08
   7      0.12965834763196
   8    -0.00086253022028887
   9    1.5194024865108e-08
  10      0.21760189653486
  11      0.23321754572654
  12    3.7302883463417e-09
  13      0.44175464245924
  14     0.006622056778201
  15    -0.0033422212515295
  16    3.5744055246992e-10
  17    -0.0021391778630658
  18    9.8770939262489e-11
  19    -0.014801450819243
  20    -0.012473393975004
  21    -1.9907349453841e-10
  22    -0.0051266338426037
  23    7.749501213695e-11
  24    0.0088263654922526
  25      0.14290717269882
  26      0.50646277168782
  27       1.8195668738503
  28      0.20124568503893
  29    -2.4383586813325e-08
  30    -0.077408390189394
  31      0.20888317762068
  32    -1.9821647445865e-08
  33      0.13513376369405
  34      0.13726196720192
  35    -4.1491109512705e-09
  36      0.85731951331056
  37    -0.014245538140056
  38    0.00088590506341922
  39    6.0919390573046e-10
  40    0.0020214079531568
  41    -2.8288621805821e-10
  42     0.013679777165886
  43     0.035683655952664
  44    3.101096787973e-10
  45    -0.0045807523992098
  46    -6.4940378983306e-10
  47    -0.059822841325887
  48      -0.2920866907413
  49      -0.8880343749305
  50    -0.021629781602046
  51    -9.9496842102712e-10
  52     0.023991149848463
  53     -0.11123431251054
  54    -5.1694177726316e-10
  55      0.11149737787095
 Sym= A
 Ene=               5
 Spin= Alpha
 Occup=    0.00000
   1    -0.0016223075547961
   2    -0.033028991807522
   3    -0.054944343790149
   4    -0.060391705004244
   5      0.41572652730093
   6    -1.6052208922997e-10
   7     -0.37521198032588
   8      0.28854571791281
   9    3.3257277426016e-10
  10     -0.23720127669875
  11     0.030053641538373
  12    4.7469099906528e-10
  13    0.0038397165948036
  14     0.017940531007386
  15      -0.0102284571516
  16    1.6317257035885e-10
  17    -0.0041986289750637
  18    6.0108750937409e-11
  19     0.023687524348566
  20     -0.02053023976558
  21    1.3612051968706e-10
  22    -0.0048333717143016
  23    6.8595460515599e-11
  24    -0.0013374787862117
  25    -0.084376700494231
  26     -0.16487670550872
  27     0.069733897901718
  28      0.25727871170081
  29    -5.02164050464e-09
  30      0.18169108581698
  31     0.097899497649011
  32    -3.5462177829372e-09
  33     0.067964184800473
  34    0.0096198037125663
  35    -6.0269576950157e-10
  36     0.021473435502412
  37    -0.0022976392071138
  38     0.038748895135397
  39    -8.8206508074213e-11
  40      0.01128673876605
  41    -1.1174794512667e-10
  42    0.0019734734667779
  43    -0.0049860404207043
  44    1.1068535564387e-10
  45    -0.00043185791411962
  46    -1.0973045765552e-10
  47    -0.026025995643616
  48    -0.061293736084266
  49    -0.031145493047938
  50    0.0042703606545609
  51    -1.895717895833e-10
  52    0.0077792908131751
  53    0.0086013756932771
  54    -4.5596807357048e-11
  55    0.0018526132499909
 Sym= A
 Ene=               6
 Spin= Alpha
 Occup=    0.00000
   1    0.0058594441974411
   2       0.1296639434651
   3      0.50395829107971
   4       2.7050651809423
   5    -0.057228318781175
   6    -4.2493543237144e-09
   7    -0.00069584240545303
   8    -0.079226457288509
   9    -3.554316250882e-09
  10      -0.2198086286206
  11     -0.36119663569895
  12    -9.2506962165288e-10
  13     -0.63024648603923
  14    0.00066151564514609
  15    -0.0010014995920395
  16    -1.0396715776043e-10
  17    -0.0018615651536908
  18    -3.510871071489e-11
  19     0.040682625417554
  20     0.022849808418501
  21    3.5402744456139e-11
  22    -0.0018890116218311
  23    -4.124987668631e-11
  24     0.011272642391033
  25     0.046775962128465
  26      -0.2001543231778
  27      -2.5488751890923
  28    -0.0062101953569168
  29    6.3619872006991e-09
  30     -0.16044512886836
  31    -0.039036590648371
  32    5.0054572847281e-09
  33     -0.45410415374609
  34     -0.28771787693029
  35    3.082594508094e-10
  36      -1.5460262344517
  37     0.018352833945968
  38    0.0072465487485602
  39    -1.2504587377722e-10
  40    -0.0042842363254426
  41    7.1212596065258e-11
  42    -0.045776381832257
  43    -0.038614121030158
  44    -7.820585532568e-11
  45    -0.016445635431628
  46    1.2092309782071e-10
  47    -0.060248629748332
  48     -0.32851879845932
  49     -0.33423256564273
  50    -0.020378032647644
  51    2.3665188806872e-10
  52    -0.0076538479084666
  53    -0.0057469259274768
  54    4.0133208488583e-11
  55     -0.10897662921947
 Sym= A
 Ene=               7
 Spin= Alpha
 Occup=    0.00000
   1    0.0024487859131112
   2      0.12339172467282
   3      0.20317618203788
   4     0.057240759392986
   5      0.29586994343196
   6    1.5075003020332e-08
   7      0.34494762691556
   8      0.18330601152893
   9    1.1276435701328e-08
  10       0.1736517626456
  11    -0.0088623010767673
  12    2.0036017311695e-09
  13    -0.010077029688502
  14    -0.014076179308872
  15    -0.020051958812854
  16    -2.064888663642e-10
  17    -0.0036404212219823
  18    -5.3582349796239e-11
  19    -0.0072007851682581
  20    -0.025710738114026
  21    -5.8926870091387e-10
  22    -0.0029758609678996
  23    -8.7922065752221e-11
  24    -0.0063966913721799
  25      -0.1083413691934
  26    -0.080815856110279
  27    -0.053948345759548
  28      0.14405285263798
  29    -4.8482229092795e-09
  30     -0.33894287046411
  31     0.038207226233117
  32    -5.5009381123783e-09
  33    -0.098582242051162
  34     0.010067883833442
  35    -1.4857519505395e-09
  36    -0.0094363203939859
  37     -0.03078020707166
  38    -0.011747017802682
  39    7.6133312151351e-10
  40    0.0083364923754319
  41    9.7586232841864e-11
  42     0.010604970247124
  43    -0.0061045436504899
  44    -1.9891547411996e-11
  45    -0.0079958772659464
  46    -1.8086347369011e-10
  47      0.23345531329995
  48     0.097233907809564
  49      0.11652237773972
  50     -0.01609999320505
  51    -2.2495901823782e-10
  52      0.01044482980143
  53     0.013215068111503
  54    -2.4275634851372e-10
  55    0.0072526030733071
 Sym= A
 Ene=               8
 Spin= Alpha
 Occup=    0.00000
   1    0.0016446041471896
   2     0.050738484542611
   3     0.038566495891853
   4     -0.32827272063993
   5     -0.15610948573068
   6    4.4087983159698e-09
   7      0.45449032859564
   8    -0.095665474175969
   9    2.8037885011535e-09
  10      0.30528233094053
  11     0.040216263028974
  12    2.2698953108819e-11
  13     0.087771572771782
  14    -0.022553965031994
  15    0.0033764919195107
  16    -2.3247858000922e-10
  17    0.0030987680989584
  18    -7.0790627385239e-11
  19    -0.030889347434343
  20    0.0041994027654781
  21    -3.1286829954771e-10
  22    0.0021263729479684
  23    -8.8019535430675e-11
  24    -0.00051917398495006
  25     0.088537763627797
  26      0.27017226023522
  27      0.33401826378377
  28     -0.32098330552396
  29    3.9558494733502e-09
  30     -0.27799402483285
  31     -0.15602066095758
  32    2.2193337909295e-09
  33    -0.036226974441005
  34     0.024013474768955
  35    3.0763084373902e-10
  36      0.19881571536172
  37    -0.013551283393453
  38    -0.036080385033249
  39    3.0230299096506e-10
  40    -0.0097555522159488
  41    1.4839172414858e-10
  42     0.011586211723495
  43    0.0069461185461058
  44    -1.3226852775662e-10
  45    -0.0018431980443213
  46    6.5760960738196e-11
  47     0.022791995935648
  48     0.082598181631197
  49     0.060409522739931
  50    -0.0039151199597909
  51    1.3647471834631e-10
  52    -0.0078549754906775
  53    -0.0086812220374322
  54    -1.1159779049526e-11
  55     0.022762567431338
 Sym= A
 Ene=               9
 Spin= Alpha
 Occup=    0.00000
   1    -0.0015913323773932
   2     0.011255304646665
   3      0.13766796545038
   4       1.3223495262315
   5    -0.0089525101689845
   6    -2.5580649720858e-09
   7     -0.15808113699151
   8    -0.020013668548028
   9    -1.7354396580562e-09
  10     -0.20999525767089
  11      -0.1989132457073
  12    1.107788457751e-10
  13     -0.37931910603924
  14    -0.0053712472156573
  15    0.0053723697115711
  16    1.799108122741e-11
  17    0.0026753697719394
  18    5.5665663884931e-12
  19     0.011408747423377
  20     0.013109218950546
  21    6.6848896733133e-11
  22    0.0057539688931827
  23    2.1882389828957e-11
  24    -0.0094309546667051
  25     -0.14058901924495
  26      -0.4866673026897
  27      -1.5690933111522
  28     -0.20411325673029
  29    1.2101027161072e-09
  30      0.12489301387646
  31     -0.20146046694611
  32    1.1872144866699e-09
  33     -0.08191122202574
  34     -0.10924348219113
  35    4.0085211051454e-10
  36     -0.70560284032969
  37     0.015621903793651
  38    -0.0011962280224538
  39    -1.0811914649298e-10
  40    -0.0022497555985815
  41    -1.5319179813789e-11
  42    -0.010563970662467
  43    -0.031138007537747
  44    4.6981884945617e-11
  45    0.0070703509867543
  46    6.7528775975595e-11
  47     0.051161952688932
  48      0.31847671220741
  49      0.91089714235214
  50     0.024776276630174
  51    6.5961020526739e-11
  52    -0.023766997384952
  53      0.11058557042277
  54    7.2598374047745e-11
  55     -0.10193921461652
 Sym= A
 Ene=              10
 Spin= Alpha
 Occup=    0.00000
   1    0.0026553336071217
   2      0.12289834071897
   3      0.23090026118123
   4      0.27474776458499
   5      0.34688886597274
   6    5.5016183567271e-09
   7      0.22818718438747
   8       0.2101804548217
   9    3.4224225458196e-09
  10     0.083342326100782
  11    -0.036212075428983
  12    -3.6158094480277e-11
  13     -0.05779283934974
  14    -0.0067279783318016
  15    -0.022757287466357
  16    -3.3081310301976e-10
  17    -0.0052502978097294
  18    -8.7150612646342e-11
  19    0.0049988408260404
  20    -0.027371646170986
  21    -4.2370804336092e-10
  22    -0.0043655113360943
  23    -1.1511213817216e-10
  24    -0.0048952974602479
  25     -0.13037870180996
  26     -0.15532566820737
  27     -0.24040252848687
  28      0.28594577577039
  29    5.9937286506141e-09
  30     -0.28778106685806
  31      0.11371907005949
  32    3.5070009227901e-09
  33     -0.12173517522944
  34    -0.010440217846931
  35     3.34468438664e-10
  36       -0.140145970509
  37      -0.0275011830178
  38    -0.00019858249916071
  39    4.0946778830954e-10
  40      0.01202060216314
  41    2.0784190894159e-10
  42    0.0041620614091202
  43    -0.0089579520372831
  44    -1.6831269329957e-10
  45    -0.0096508677770332
  46    9.8161480172419e-11
  47      0.23526063426131
  48     0.022620015015315
  49    -0.0048003536974086
  50    -0.019819073548588
  51    2.1515707879293e-10
  52     0.015528256521306
  53    0.0065513335078228
  54    -1.3504789427526e-11
  55    -0.00018775748806521
 Sym= A
 Ene=              11
 Spin= Alpha
 Occup=    0.00000
   1     0.005784892911095
   2       0.1390718547875
   3      0.53676788269514
   4       2.8773312247167
   5    0.0090546683984857
   6    1.6475279027235e-09
   7    -0.041999213881217
   8    -0.039442890032304
   9    1.3938357183972e-09
  10     -0.26416393643677
  11     -0.38559913406593
  12     4.71025891875e-10
  13     -0.67784130759097
  14    0.0020027445735987
  15    -0.0038605201146843
  16    5.8336104379974e-12
  17    -0.0026467906684156
  18    -2.8719831815225e-12
  19     0.045744272301098
  20     0.019701629737122
  21    -3.9996943648311e-11
  22    -0.0021671833343373
  23    -1.1932829582855e-11
  24    0.0096780186541119
  25    0.0054448136013626
  26     -0.29672383942069
  27      -2.7425510610797
  28     0.049002460311255
  29    -1.376133462182e-09
  30     -0.15035296480175
  31    -0.025288010180917
  32    -1.3044824664594e-09
  33     -0.46827703247565
  34     -0.29939808115861
  35    -1.0051013740209e-09
  36      -1.6389141786401
  37      0.01766585036293
  38     0.011519858329876
  39    7.8598445302006e-11
  40    -0.0017187129436653
  41    -2.125490827674e-11
  42    -0.047086493267502
  43    -0.043219534993751
  44    4.3338247733972e-11
  45    -0.016634796168329
  46    -7.5478486124701e-11
  47    -0.027857286693744
  48     -0.30177483054402
  49     -0.25092917024486
  50    -0.019817920656474
  51    -7.4006797546062e-11
  52    -0.0069444317246252
  53    0.0068680977145023
  54    -1.1635766541331e-10
  55     -0.12028773380465
 Sym= A
 Ene=              12
 Spin= Alpha
 Occup=    0.00000
   1    -4.4631592483549e-11
   2    -2.2313663635736e-09
   3    -3.4738861608618e-09
   4    -6.5494462751143e-10
   5    -2.8354441042079e-09
   6      0.53588411665358
   7    -6.9277925927389e-09
   8    -1.7219558128122e-09
   9      0.35593557152342
  10    -3.814628954272e-09
  11    1.1240219336439e-10
  12     0.020623227057245
  13    -6.5987390508156e-11
  14    2.6244398089101e-10
  15    2.4884682214741e-10
  16    -0.023923823158115
  17    3.7735156183659e-11
  18    -0.0067622326993776
  19    1.8793005204285e-10
  20    3.0484165726751e-10
  21    -0.034292163350794
  22    3.0956540345769e-11
  23    -0.0088756840084791
  24    6.4085852607419e-11
  25    -7.9435844351021e-12
  26    -1.2621791702717e-09
  27    1.0408078752094e-11
  28    -8.8980659091417e-10
  29      0.32833875646113
  30    6.4178806567243e-09
  31    -5.9827192945173e-11
  32      0.16058167784728
  33    2.0583006951966e-09
  34    -6.8256620658398e-11
  35    0.0065771596071946
  36    8.4952974986732e-11
  37    4.6442000163981e-10
  38    3.4288614592468e-10
  39     0.034768380719557
  40    -7.5172884883535e-11
  41     0.015434084177783
  42    -1.5765830624445e-10
  43    3.434611758802e-11
  44     -0.01159110616437
  45    1.7158625736335e-10
  46    0.0048900213534613
  47    -3.6395832321371e-09
  48    -8.6642170929412e-10
  49    -1.0668835507227e-10
  50    3.6003238900223e-10
  51     0.010585517847776
  52    -1.7165908755573e-10
  53    1.3461334341894e-11
  54    -0.0038647460682325
  55    -2.0868584353972e-10
 Sym= A
 Ene=              13
 Spin= Alpha
 Occup=    0.00000
   1    4.4631592483549e-11
   2    2.2313663635736e-09
   3    3.4738861608618e-09
   4    6.5494462751143e-10
   5    2.8354441042079e-09
   6     -0.53588411665358
   7    6.9277925927389e-09
   8    1.7219558128122e-09
   9     -0.35593557152342
  10    3.814628954272e-09
  11    -1.1240219336439e-10
  12    -0.020623227057245
  13    6.5987390508156e-11
  14    -2.6244398089101e-10
  15    -2.4884682214741e-10
  16     0.023923823158115
  17    -3.7735156183659e-11
  18    0.0067622326993776
  19    -1.8793005204285e-10
  20    -3.0484165726751e-10
  21     0.034292163350794
  22    -3.0956540345769e-11
  23    0.0088756840084791
  24    -6.4085852607419e-11
  25    7.9435844351021e-12
  26    1.2621791702717e-09
  27    -1.0408078752094e-11
  28    8.8980659091417e-10
  29     -0.32833875646113
  30    -6.4178806567243e-09
  31    5.9827192945173e-11
  32     -0.16058167784728
  33    -2.0583006951966e-09
  34    6.8256620658398e-11
  35    -0.0065771596071946
  36    -8.4952974986732e-11
  37    -4.6442000163981e-10
  38    -3.4288614592468e-10
  39    -0.034768380719557
  40    7.5172884883535e-11
  41    -0.015434084177783
  42    1.5765830624445e-10
  43    -3.434611758802e-11
  44      0.01159110616437
  45    -1.7158625736335e-10
  46    -0.0048900213534613
  47    3.6395832321371e-09
  48    8.6642170929412e-10
  49    1.0668835507227e-10
  50    -3.6003238900223e-10
  51    -0.010585517847776
  52    1.7165908755573e-10
  53    -1.3461334341894e-11
  54    0.0038647460682325
  55    2.0868584353972e-10
 Sym= A
 Ene=              14
 Spin= Alpha
 Occup=    0.00000
   1     0.002375575875713
   2      0.26934219492673
   3      0.40408836395949
   4     0.063531738447494
   5    0.0033895275633635
   6    -7.101598876901e-10
   7      0.13217129388877
   8    -0.016795236864814
   9    -4.6499503021418e-10
  10     0.026004994298429
  11    0.00071215481560018
  12    -2.7296588091713e-11
  13    -0.0086426453317951
  14    -0.0097061602826415
  15    -0.00063863079100131
  16    3.2679428708985e-11
  17    0.00085093850559072
  18    9.5007268120374e-12
  19    -0.0058602080886197
  20    0.0064312424775598
  21    4.4137809393628e-11
  22    -0.0022428025828569
  23    1.2012953796127e-11
  24    -0.0025512088799932
  25     -0.35407936955174
  26      -0.4002057424273
  27    -0.053027339666584
  28    -0.089062314807684
  29    -3.6683629964301e-10
  30      0.18462046842571
  31    -0.016605516289674
  32    -1.7339229225871e-10
  33    0.0066815687167999
  34    -0.0080980166705619
  35    -7.5578403634865e-12
  36    -0.0077020942014458
  37     0.010707575347473
  38     0.012549962657445
  39    -4.1350665210943e-11
  40    -0.0079422565231206
  41     -1.6907690294e-11
  42    -0.022986513895673
  43    -0.019328824276238
  44    1.5127824956169e-11
  45      0.01300394360258
  46    -4.0527452540014e-12
  47     -0.27289290040821
  48    -0.011234341290841
  49    0.0017110778268024
  50      0.03237059073896
  51    -1.3034109604579e-11
  52    -0.019976979292677
  53    -0.0073656989991017
  54    3.4069197416562e-12
  55     0.002116959575621
 Sym= A
 Ene=              15
 Spin= Alpha
 Occup=    0.00000
   1    -0.002375575875713
   2     -0.26934219492673
   3     -0.40408836395949
   4    -0.063531738447494
   5    -0.0033895275633635
   6    7.101598876901e-10
   7     -0.13217129388877
   8     0.016795236864814
   9    4.6499503021418e-10
  10    -0.026004994298429
  11    -0.00071215481560018
  12    2.7296588091713e-11
  13    0.0086426453317951
  14    0.0097061602826415
  15    0.00063863079100131
  16    -3.2679428708985e-11
  17    -0.00085093850559072
  18    -9.5007268120374e-12
  19    0.0058602080886197
  20    -0.0064312424775598
  21    -4.4137809393628e-11
  22    0.0022428025828569
  23    -1.2012953796127e-11
  24    0.0025512088799932
  25      0.35407936955174
  26       0.4002057424273
  27     0.053027339666584
  28     0.089062314807684
  29    3.6683629964301e-10
  30     -0.18462046842571
  31     0.016605516289674
  32    1.7339229225871e-10
  33    -0.0066815687167999
  34    0.0080980166705619
  35    7.5578403634865e-12
  36    0.0077020942014458
  37    -0.010707575347473
  38    -0.012549962657445
  39    4.1350665210943e-11
  40    0.0079422565231206
  41      1.6907690294e-11
  42     0.022986513895673
  43     0.019328824276238
  44    -1.5127824956169e-11
  45     -0.01300394360258
  46    4.0527452540014e-12
  47      0.27289290040821
  48     0.011234341290841
  49    -0.0017110778268024
  50     -0.03237059073896
  51    1.3034109604579e-11
  52     0.019976979292677
  53    0.0073656989991017
  54    -3.4069197416562e-12
  55    -0.002116959575621
 Sym= A
 Ene=              16
 Spin= Alpha
 Occup=    0.00000
   1    -0.0080847793609811
   2      0.39100143001449
   3      0.44667915582284
   4     0.030071322172967
   5    -0.026900994553976
   6    7.1852080400882e-10
   7     -0.10538174275353
   8    -0.017258219541206
   9    4.7658189483448e-10
  10    -0.080438632811711
  11    0.00053859843048488
  12    2.7121720474236e-11
  13    0.0044498524455183
  14      0.01499713715632
  15    0.0071662685958536
  16    -3.3760554932518e-11
  17    0.00061497307022675
  18    -9.9912951305688e-12
  19     0.016593662159677
  20     0.005090221040601
  21    -4.8885952793847e-11
  22    0.0017397137847601
  23    -1.3862673031971e-11
  24    -0.0037302094813795
  25      0.26372029074818
  26     0.086212108170187
  27    -0.0036276913483754
  28     0.063129315130759
  29    4.061737149558e-10
  30      0.12052954441286
  31    -0.011303141805849
  32    1.843050823746e-10
  33    -0.040879534675825
  34     0.003746370224314
  35    5.4887336263972e-12
  36    -0.0086501741871458
  37       0.0228082393493
  38     0.013849891024199
  39    4.8390349250646e-11
  40    0.0036804666902664
  41     1.94024679673e-11
  42    -0.013692290434976
  43    -0.0050902691024835
  44    -1.4794722107122e-11
  45    -0.0070965134586015
  46    4.0447071042576e-12
  47     0.082642946673992
  48    -0.028750609801873
  49    -0.00069584832193353
  50    -0.013261627159723
  51    1.2558535645524e-11
  52      0.01228504788098
  53     0.012654984962463
  54    -5.4889841658367e-12