[Molden Format]
[N_Atoms]
                    11
[Atoms] (AU)
C1          1      6           0.52305432     -2.22447461      0.00003178
C2          2      6          -1.88390111     -1.38878354     -0.00002819
C3          3      6          -1.88377711      1.38895724     -0.00002235
C4          4      6           0.52325247      2.22443245      0.00004055
C5          5      6           2.28534660     -0.00009948      0.00010220
H6          6      1           1.14276520     -4.18477863      0.00004217
H7          7      1          -3.57619886     -2.55926588     -0.00006874
H8          8      1          -3.57597160      2.55958890     -0.00005837
H9          9      1           1.14314087      4.18468000      0.00005871
H10        10      1           3.53272380     -0.00015750      1.66857490
H11        11      1           3.53293743     -0.00015085     -1.66820487
[Charge] (Mulliken)
  0.000000000000000E+000
  0.000000000000000E+000
  0.000000000000000E+000
  0.000000000000000E+000
  0.000000000000000E+000
  0.000000000000000E+000
  0.000000000000000E+000
  0.000000000000000E+000
  0.000000000000000E+000
  0.000000000000000E+000
  0.000000000000000E+000
[GTO] (AU)
   1
   s   6
  3.047524880E+03  1.834737132E-03
  4.573695180E+02  1.403732281E-02
  1.039486850E+02  6.884262227E-02
  2.921015530E+01  2.321844432E-01
  9.286662960E+00  4.679413484E-01
  3.163926960E+00  3.623119853E-01
   s   3
  7.868272350E+00 -1.193324198E-01
  1.881288540E+00 -1.608541517E-01
  5.442492580E-01  1.143456438E+00
   s   1
  1.687144782E-01  1.000000000E+00
   p   3
  7.868272350E+00  6.899906659E-02
  1.881288540E+00  3.164239610E-01
  5.442492580E-01  7.443082909E-01
   p   1
  1.687144782E-01  1.000000000E+00
   d   1
  8.000000000E-01  1.000000000E+00
 
   2
   s   6
  3.047524880E+03  1.834737132E-03
  4.573695180E+02  1.403732281E-02
  1.039486850E+02  6.884262227E-02
  2.921015530E+01  2.321844432E-01
  9.286662960E+00  4.679413484E-01
  3.163926960E+00  3.623119853E-01
   s   3
  7.868272350E+00 -1.193324198E-01
  1.881288540E+00 -1.608541517E-01
  5.442492580E-01  1.143456438E+00
   s   1
  1.687144782E-01  1.000000000E+00
   p   3
  7.868272350E+00  6.899906659E-02
  1.881288540E+00  3.164239610E-01
  5.442492580E-01  7.443082909E-01
   p   1
  1.687144782E-01  1.000000000E+00
   d   1
  8.000000000E-01  1.000000000E+00
 
   3
   s   6
  3.047524880E+03  1.834737132E-03
  4.573695180E+02  1.403732281E-02
  1.039486850E+02  6.884262227E-02
  2.921015530E+01  2.321844432E-01
  9.286662960E+00  4.679413484E-01
  3.163926960E+00  3.623119853E-01
   s   3
  7.868272350E+00 -1.193324198E-01
  1.881288540E+00 -1.608541517E-01
  5.442492580E-01  1.143456438E+00
   s   1
  1.687144782E-01  1.000000000E+00
   p   3
  7.868272350E+00  6.899906659E-02
  1.881288540E+00  3.164239610E-01
  5.442492580E-01  7.443082909E-01
   p   1
  1.687144782E-01  1.000000000E+00
   d   1
  8.000000000E-01  1.000000000E+00
 
   4
   s   6
  3.047524880E+03  1.834737132E-03
  4.573695180E+02  1.403732281E-02
  1.039486850E+02  6.884262227E-02
  2.921015530E+01  2.321844432E-01
  9.286662960E+00  4.679413484E-01
  3.163926960E+00  3.623119853E-01
   s   3
  7.868272350E+00 -1.193324198E-01
  1.881288540E+00 -1.608541517E-01
  5.442492580E-01  1.143456438E+00
   s   1
  1.687144782E-01  1.000000000E+00
   p   3
  7.868272350E+00  6.899906659E-02
  1.881288540E+00  3.164239610E-01
  5.442492580E-01  7.443082909E-01
   p   1
  1.687144782E-01  1.000000000E+00
   d   1
  8.000000000E-01  1.000000000E+00
 
   5
   s   6
  3.047524880E+03  1.834737132E-03
  4.573695180E+02  1.403732281E-02
  1.039486850E+02  6.884262227E-02
  2.921015530E+01  2.321844432E-01
  9.286662960E+00  4.679413484E-01
  3.163926960E+00  3.623119853E-01
   s   3
  7.868272350E+00 -1.193324198E-01
  1.881288540E+00 -1.608541517E-01
  5.442492580E-01  1.143456438E+00
   s   1
  1.687144782E-01  1.000000000E+00
   p   3
  7.868272350E+00  6.899906659E-02
  1.881288540E+00  3.164239610E-01
  5.442492580E-01  7.443082909E-01
   p   1
  1.687144782E-01  1.000000000E+00
   d   1
  8.000000000E-01  1.000000000E+00
 
   6
   s   3
  1.873113696E+01  3.349460434E-02
  2.825394365E+00  2.347269535E-01
  6.401216923E-01  8.137573261E-01
   s   1
  1.612777588E-01  1.000000000E+00
 
   7
   s   3
  1.873113696E+01  3.349460434E-02
  2.825394365E+00  2.347269535E-01
  6.401216923E-01  8.137573261E-01
   s   1
  1.612777588E-01  1.000000000E+00
 
   8
   s   3
  1.873113696E+01  3.349460434E-02
  2.825394365E+00  2.347269535E-01
  6.401216923E-01  8.137573261E-01
   s   1
  1.612777588E-01  1.000000000E+00
 
   9
   s   3
  1.873113696E+01  3.349460434E-02
  2.825394365E+00  2.347269535E-01
  6.401216923E-01  8.137573261E-01
   s   1
  1.612777588E-01  1.000000000E+00
 
  10
   s   3
  1.873113696E+01  3.349460434E-02
  2.825394365E+00  2.347269535E-01
  6.401216923E-01  8.137573261E-01
   s   1
  1.612777588E-01  1.000000000E+00
 
  11
   s   3
  1.873113696E+01  3.349460434E-02
  2.825394365E+00  2.347269535E-01
  6.401216923E-01  8.137573261E-01
   s   1
  1.612777588E-01  1.000000000E+00
 
[MO]
Sym=     1a  
Ene=   -11.3570
Spin= Alpha
Occup=    2.00000
   1         0.44667162
   2         0.00983295
   3         0.00138647
   4        -0.00086663
   5         0.00135479
   6        -0.00000001
   7        -0.00054121
   8         0.00084607
   9        -0.00000001
  10        -0.00000000
  11        -0.00000000
  12         0.00000000
  13        -0.00000000
  14        -0.00000000
  15         0.00000000
  16         0.47866122
  17         0.01054648
  18         0.00149614
  19         0.00138857
  20         0.00085165
  21         0.00000004
  22         0.00086716
  23         0.00053185
  24         0.00000002
  25         0.00000000
  26        -0.00000000
  27        -0.00000000
  28         0.00000000
  29        -0.00000000
  30        -0.00000000
  31         0.47866207
  32         0.01054650
  33         0.00149614
  34         0.00138849
  35        -0.00085177
  36         0.00000003
  37         0.00086711
  38        -0.00053193
  39         0.00000002
  40        -0.00000000
  41        -0.00000000
  42        -0.00000000
  43        -0.00000000
  44        -0.00000000
  45         0.00000000
  46         0.44667282
  47         0.00983297
  48         0.00138647
  49        -0.00086675
  50        -0.00135471
  51        -0.00000002
  52        -0.00054129
  53        -0.00084602
  54        -0.00000001
  55         0.00000000
  56        -0.00000000
  57         0.00000000
  58         0.00000000
  59        -0.00000000
  60        -0.00000000
  61         0.35603729
  62         0.00801064
  63         0.00129764
  64        -0.00150779
  65         0.00000007
  66        -0.00000005
  67        -0.00094161
  68         0.00000004
  69        -0.00000003
  70         0.00000000
  71         0.00000000
  72         0.00000000
  73         0.00000000
  74        -0.00000000
  75         0.00000000
  76         0.00103296
  77         0.00115335
  78         0.00111018
  79         0.00123958
  80         0.00111018
  81         0.00123958
  82         0.00103296
  83         0.00115335
  84         0.00090689
  85         0.00101259
  86         0.00090688
  87         0.00101258
Sym=     2a  
Ene=   -11.3450
Spin= Alpha
Occup=    2.00000
   1        -0.55610179
   2        -0.01085560
   3        -0.00018266
   4         0.00095012
   5         0.00001397
   6         0.00000002
   7         0.00059335
   8         0.00000873
   9         0.00000002
  10         0.00000000
  11        -0.00000000
  12         0.00000000
  13        -0.00000000
  14        -0.00000000
  15        -0.00000000
  16        -0.43010543
  17        -0.00823631
  18         0.00003656
  19        -0.00121702
  20         0.00156346
  21        -0.00000003
  22        -0.00076003
  23         0.00097638
  24        -0.00000002
  25         0.00000000
  26         0.00000000
  27         0.00000000
  28         0.00000000
  29        -0.00000000
  30         0.00000000
  31         0.43010482
  32         0.00823630
  33        -0.00003656
  34         0.00121716
  35         0.00156335
  36         0.00000003
  37         0.00076011
  38         0.00097631
  39         0.00000002
  40        -0.00000000
  41        -0.00000000
  42        -0.00000000
  43         0.00000000
  44         0.00000000
  45         0.00000000
  46         0.55610084
  47         0.01085558
  48         0.00018266
  49        -0.00095012
  50         0.00001406
  51        -0.00000002
  52        -0.00059335
  53         0.00000878
  54        -0.00000001
  55        -0.00000000
  56         0.00000000
  57         0.00000000
  58        -0.00000000
  59         0.00000000
  60        -0.00000000
  61        -0.00000089
  62        -0.00000002
  63        -0.00000000
  64         0.00000008
  65         0.00180541
  66         0.00000000
  67         0.00000005
  68         0.00112747
  69         0.00000000
  70         0.00000000
  71         0.00000000
  72         0.00000000
  73        -0.00000000
  74        -0.00000000
  75        -0.00000000
  76        -0.00115221
  77        -0.00128651
  78        -0.00086425
  79        -0.00096498
  80         0.00086425
  81         0.00096498
  82         0.00115221
  83         0.00128650
  84        -0.00000000
  85        -0.00000000
  86        -0.00000000
  87        -0.00000000
Sym=     3a  
Ene=   -11.3410
Spin= Alpha
Occup=    2.00000
   1         0.12951855
   2         0.00262137
   3         0.00014614
   4         0.00205538
   5         0.00075585
   6         0.00000007
   7         0.00128359
   8         0.00047203
   9         0.00000004
  10        -0.00000000
  11        -0.00000000
  12         0.00000000
  13         0.00000000
  14        -0.00000000
  15         0.00000000
  16        -0.41274750
  17        -0.00778560
  18         0.00016681
  19         0.00065415
  20        -0.00080253
  21         0.00000002
  22         0.00040852
  23        -0.00050118
  24         0.00000001
  25         0.00000000
  26        -0.00000000
  27        -0.00000000
  28        -0.00000000
  29        -0.00000000
  30        -0.00000000
  31        -0.41274705
  32        -0.00778559
  33         0.00016681
  34         0.00065422
  35         0.00080248
  36         0.00000002
  37         0.00040856
  38         0.00050115
  39         0.00000001
  40        -0.00000000
  41        -0.00000000
  42         0.00000000
  43        -0.00000000
  44        -0.00000000
  45         0.00000000
  46         0.12951922
  47         0.00262138
  48         0.00014614
  49         0.00205532
  50        -0.00075603
  51         0.00000006
  52         0.00128354
  53        -0.00047214
  54         0.00000004
  55         0.00000000
  56        -0.00000000
  57        -0.00000000
  58         0.00000000
  59        -0.00000000
  60        -0.00000000
  61         0.78421999
  62         0.01470586
  63        -0.00041355
  64         0.00001574
  65         0.00000000
  66        -0.00000000
  67         0.00000983
  68         0.00000000
  69        -0.00000000
  70        -0.00000000
  71        -0.00000000
  72        -0.00000000
  73         0.00000000
  74         0.00000000
  75         0.00000000
  76         0.00029149
  77         0.00032546
  78        -0.00082714
  79        -0.00092355
  80        -0.00082714
  81        -0.00092355
  82         0.00029149
  83         0.00032546
  84         0.00151243
  85         0.00168871
  86         0.00151244
  87         0.00168872
Sym=     4a  
Ene=   -11.3300
Spin= Alpha
Occup=    2.00000
   1        -0.52749858
   2        -0.00860633
   3         0.00170932
   4        -0.00020460
   5         0.00092552
   6         0.00000000
   7        -0.00012777
   8         0.00057798
   9         0.00000000
  10        -0.00000000
  11        -0.00000000
  12        -0.00000000
  13         0.00000000
  14        -0.00000000
  15         0.00000000
  16         0.30700136
  17         0.00515837
  18        -0.00082834
  19        -0.00120972
  20         0.00095580
  21        -0.00000003
  22        -0.00075547
  23         0.00059690
  24        -0.00000002
  25        -0.00000000
  26        -0.00000000
  27        -0.00000000
  28        -0.00000000
  29        -0.00000000
  30        -0.00000000
  31         0.30699972
  32         0.00515834
  33        -0.00082833
  34        -0.00120980
  35        -0.00095569
  36        -0.00000003
  37        -0.00075552
  38        -0.00059683
  39        -0.00000002
  40        -0.00000000
  41        -0.00000000
  42        -0.00000000
  43        -0.00000000
  44        -0.00000000
  45         0.00000000
  46        -0.52749707
  47        -0.00860631
  48         0.00170932
  49        -0.00020468
  50        -0.00092550
  51         0.00000000
  52        -0.00012782
  53        -0.00057797
  54         0.00000000
  55         0.00000000
  56         0.00000000
  57        -0.00000000
  58        -0.00000000
  59        -0.00000000
  60        -0.00000000
  61         0.49773490
  62         0.00798683
  63        -0.00176195
  64         0.00102981
  65        -0.00000004
  66         0.00000004
  67         0.00064311
  68        -0.00000003
  69         0.00000003
  70        -0.00000000
  71        -0.00000000
  72        -0.00000000
  73         0.00000000
  74        -0.00000000
  75        -0.00000000
  76        -0.00084815
  77        -0.00094700
  78         0.00051907
  79         0.00057957
  80         0.00051907
  81         0.00057956
  82        -0.00084814
  83        -0.00094700
  84         0.00069131
  85         0.00077188
  86         0.00069132
  87         0.00077189
Sym=     5a  
Ene=   -11.3280
Spin= Alpha
Occup=    2.00000
   1        -0.43102847
   2        -0.00702719
   3         0.00140250
   4        -0.00121522
   5         0.00042746
   6        -0.00000003
   7        -0.00075890
   8         0.00026695
   9        -0.00000002
  10         0.00000000
  11         0.00000000
  12         0.00000000
  13        -0.00000000
  14         0.00000000
  15        -0.00000000
  16         0.55748709
  17         0.00888271
  18        -0.00204353
  19        -0.00092913
  20        -0.00063096
  21        -0.00000003
  22        -0.00058024
  23        -0.00039404
  24        -0.00000002
  25        -0.00000000
  26         0.00000000
  27        -0.00000000
  28         0.00000000
  29         0.00000000
  30         0.00000000
  31        -0.55748807
  32        -0.00888272
  33         0.00204354
  34         0.00092908
  35        -0.00063105
  36         0.00000002
  37         0.00058021
  38        -0.00039409
  39         0.00000001
  40         0.00000000
  41         0.00000000
  42         0.00000000
  43         0.00000000
  44        -0.00000000
  45         0.00000000
  46         0.43103009
  47         0.00702722
  48        -0.00140251
  49         0.00121526
  50         0.00042735
  51         0.00000003
  52         0.00075893
  53         0.00026688
  54         0.00000002
  55        -0.00000000
  56        -0.00000000
  57        -0.00000000
  58         0.00000000
  59        -0.00000000
  60         0.00000000
  61        -0.00000083
  62        -0.00000001
  63         0.00000000
  64         0.00000005
  65         0.00117568
  66         0.00000000
  67         0.00000003
  68         0.00073421
  69         0.00000000
  70        -0.00000000
  71         0.00000000
  72        -0.00000000
  73         0.00000000
  74        -0.00000000
  75         0.00000000
  76        -0.00069495
  77        -0.00077595
  78         0.00086215
  79         0.00096263
  80        -0.00086215
  81        -0.00096263
  82         0.00069495
  83         0.00077595
  84        -0.00000000
  85        -0.00000000
  86        -0.00000000
  87        -0.00000000
Sym=     6a  
Ene=    -1.7774
Spin= Alpha
Occup=    2.00000
   1        -0.10491469
   2         0.12286678
   3         0.13904056
   4        -0.00991019
   5         0.05421134
   6         0.00000035
   7        -0.00618891
   8         0.03385496
   9         0.00000022
  10        -0.00000000
  11        -0.00000000
  12        -0.00000000
  13         0.00000000
  14         0.00000000
  15        -0.00000000
  16        -0.09976519
  17         0.11644495
  18         0.13178054
  19         0.04642221
  20         0.03098618
  21         0.00000147
  22         0.02899065
  23         0.01935085
  24         0.00000092
  25        -0.00000000
  26         0.00000000
  27         0.00000000
  28         0.00000000
  29         0.00000000
  30         0.00000000
  31        -0.09976521
  32         0.11644496
  33         0.13178055
  34         0.04641945
  35        -0.03099032
  36         0.00000134
  37         0.02898892
  38        -0.01935344
  39         0.00000084
  40         0.00000000
  41         0.00000000
  42         0.00000000
  43         0.00000000
  44         0.00000000
  45        -0.00000000
  46        -0.10491476
  47         0.12286684
  48         0.13904063
  49        -0.00991501
  50        -0.05421045
  51         0.00000014
  52        -0.00619192
  53        -0.03385440
  54         0.00000008
  55        -0.00000000
  56        -0.00000000
  57        -0.00000000
  58        -0.00000000
  59         0.00000000
  60         0.00000000
  61        -0.11362919
  62         0.13227636
  63         0.14970335
  64        -0.04815647
  65         0.00000217
  66        -0.00000102
  67        -0.03007369
  68         0.00000136
  69        -0.00000064
  70        -0.00000000
  71        -0.00000000
  72         0.00000000
  73        -0.00000000
  74         0.00000000
  75         0.00000000
  76         0.03602237
  77         0.04022084
  78         0.03271988
  79         0.03653344
  80         0.03271988
  81         0.03653344
  82         0.03602241
  83         0.04022089
  84         0.04864020
  85         0.05430930
  86         0.04863902
  87         0.05430798
Sym=     7a  
Ene=    -1.2918
Spin= Alpha
Occup=    2.00000
   1        -0.01428372
   2         0.01986225
   3         0.02241956
   4         0.10716980
   5         0.01314099
   6         0.00000385
   7         0.06692749
   8         0.00820654
   9         0.00000241
  10         0.00000000
  11         0.00000000
  12         0.00000000
  13         0.00000000
  14        -0.00000000
  15        -0.00000000
  16         0.10749810
  17        -0.14277588
  18        -0.16126184
  19         0.04784923
  20        -0.02846662
  21         0.00000159
  22         0.02988182
  23        -0.01777739
  24         0.00000099
  25        -0.00000000
  26        -0.00000000
  27        -0.00000000
  28        -0.00000000
  29         0.00000000
  30         0.00000000
  31         0.10749783
  32        -0.14277551
  33        -0.16126142
  34         0.04785191
  35         0.02846267
  36         0.00000172
  37         0.02988350
  38         0.01777492
  39         0.00000107
  40         0.00000000
  41         0.00000000
  42         0.00000000
  43         0.00000000
  44         0.00000000
  45        -0.00000000
  46        -0.01428421
  47         0.01986289
  48         0.02242028
  49         0.10716862
  50        -0.01315034
  51         0.00000380
  52         0.06692675
  53        -0.00821238
  54         0.00000237
  55         0.00000000
  56        -0.00000000
  57         0.00000000
  58         0.00000000
  59        -0.00000000
  60         0.00000000
  61        -0.12633077
  62         0.16556275
  63         0.18703492
  64         0.05753221
  65        -0.00000233
  66         0.00000279
  67         0.03592884
  68        -0.00000146
  69         0.00000174
  70         0.00000000
  71         0.00000000
  72         0.00000000
  73         0.00000000
  74        -0.00000000
  75         0.00000000
  76         0.01736809
  77         0.01939237
  78        -0.07777775
  79        -0.08684288
  80        -0.07777756
  81        -0.08684268
  82         0.01736854
  83         0.01939288
  84         0.09491407
  85         0.10597648
  86         0.09491464
  87         0.10597711
Sym=     8a  
Ene=    -1.2557
Spin= Alpha
Occup=    2.00000
   1         0.12172900
   2        -0.16430061
   3        -0.18553121
   4         0.02628547
   5         0.04883027
   6         0.00000062
   7         0.01641526
   8         0.03049448
   9         0.00000039
  10        -0.00000000
  11        -0.00000000
  12        -0.00000000
  13         0.00000000
  14         0.00000000
  15        -0.00000000
  16         0.08187623
  17        -0.10906144
  18        -0.12317712
  19        -0.03228760
  20         0.09066193
  21        -0.00000072
  22        -0.02016359
  23         0.05661833
  24        -0.00000045
  25        -0.00000000
  26        -0.00000000
  27        -0.00000000
  28        -0.00000000
  29         0.00000000
  30        -0.00000000
  31        -0.08187667
  32         0.10906202
  33         0.12317777
  34         0.03229547
  35         0.09065887
  36         0.00000107
  37         0.02016850
  38         0.05661641
  39         0.00000067
  40         0.00000000
  41        -0.00000000
  42        -0.00000000
  43         0.00000000
  44         0.00000000
  45        -0.00000000
  46        -0.12172890
  47         0.16430045
  48         0.18553102
  49        -0.02628152
  50         0.04883270
  51        -0.00000042
  52        -0.01641279
  53         0.03049600
  54        -0.00000026
  55        -0.00000000
  56        -0.00000000
  57         0.00000000
  58        -0.00000000
  59         0.00000000
  60         0.00000000
  61         0.00000027
  62        -0.00000036
  63        -0.00000041
  64         0.00000430
  65         0.09841267
  66         0.00000020
  67         0.00000268
  68         0.06145866
  69         0.00000012
  70         0.00000000
  71         0.00000000
  72         0.00000000
  73        -0.00000000
  74        -0.00000000
  75        -0.00000000
  76        -0.09529062
  77        -0.10639690
  78        -0.06304076
  79        -0.07038828
  80         0.06304103
  81         0.07038858
  82         0.09529051
  83         0.10639678
  84        -0.00000018
  85        -0.00000020
  86        -0.00000018
  87        -0.00000020
Sym=     9a  
Ene=    -0.9140
Spin= Alpha
Occup=    2.00000
   1        -0.08579003
   2         0.12868926
   3         0.14511371
   4        -0.02034336
   5        -0.14514447
   6        -0.00000386
   7        -0.01270442
   8        -0.09064265
   9        -0.00000241
  10        -0.00000000
  11        -0.00000000
  12        -0.00000000
  13         0.00000000
  14        -0.00000000
  15         0.00000000
  16         0.03291894
  17        -0.04666336
  18        -0.05265771
  19         0.09511046
  20        -0.12075423
  21         0.00000010
  22         0.05939643
  23        -0.07541095
  24         0.00000006
  25         0.00000000
  26         0.00000000
  27         0.00000000
  28        -0.00000000
  29        -0.00000000
  30        -0.00000000
  31         0.03291915
  32        -0.04666365
  33        -0.05265804
  34         0.09512153
  35         0.12074550
  36         0.00000059
  37         0.05940335
  38         0.07540550
  39         0.00000037
  40         0.00000000
  41         0.00000000
  42         0.00000000
  43         0.00000000
  44        -0.00000000
  45         0.00000000
  46        -0.08579026
  47         0.12868960
  48         0.14511409
  49        -0.02032992
  50         0.14514639
  51        -0.00000327
  52        -0.01269602
  53         0.09064384
  54        -0.00000204
  55         0.00000000
  56        -0.00000000
  57        -0.00000000
  58        -0.00000000
  59        -0.00000000
  60        -0.00000000
  61         0.06968457
  62        -0.09659507
  63        -0.10903661
  64        -0.07045034
  65         0.00000343
  66        -0.00000625
  67        -0.04399620
  68         0.00000214
  69        -0.00000390
  70        -0.00000000
  71         0.00000000
  72         0.00000000
  73        -0.00000000
  74        -0.00000000
  75         0.00000000
  76         0.13738941
  77         0.15340238
  78        -0.03019695
  79        -0.03371646
  80        -0.03019741
  81        -0.03371697
  82         0.13738966
  83         0.15340266
  84        -0.07231515
  85        -0.08074361
  86        -0.07231407
  87        -0.08074241
Sym=    10a  
Ene=    -0.8907
Spin= Alpha
Occup=    2.00000
   1         0.01934794
   2        -0.01199956
   3        -0.01377396
   4         0.04200924
   5        -0.13680197
   6         0.00000199
   7         0.02623475
   8        -0.08543276
   9         0.00000124
  10         0.00000000
  11        -0.00000000
  12         0.00000000
  13        -0.00000000
  14        -0.00000000
  15         0.00000000
  16        -0.01264217
  17         0.03765165
  18         0.04219042
  19        -0.16939062
  20        -0.08669477
  21        -0.00000350
  22        -0.10578435
  23        -0.05414084
  24        -0.00000218
  25        -0.00000000
  26        -0.00000000
  27        -0.00000000
  28         0.00000000
  29        -0.00000000
  30         0.00000000
  31        -0.01264140
  32         0.03765055
  33         0.04218917
  34        -0.16938225
  35         0.08670901
  36        -0.00000315
  37        -0.10577913
  38         0.05414973
  39        -0.00000196
  40        -0.00000000
  41        -0.00000000
  42         0.00000000
  43         0.00000000
  44         0.00000000
  45        -0.00000000
  46         0.01934748
  47        -0.01199882
  48        -0.01377314
  49         0.04202284
  50         0.13679850
  51         0.00000253
  52         0.02624324
  53         0.08543059
  54         0.00000158
  55         0.00000000
  56         0.00000000
  57        -0.00000000
  58         0.00000000
  59        -0.00000000
  60        -0.00000000
  61        -0.02207853
  62         0.04452483
  63         0.05004472
  64         0.18280582
  65        -0.00000737
  66         0.00000658
  67         0.11416214
  68        -0.00000460
  69         0.00000411
  70        -0.00000000
  71        -0.00000000
  72        -0.00000000
  73         0.00000000
  74        -0.00000000
  75         0.00000000
  76         0.06770300
  77         0.07559391
  78         0.11901206
  79         0.13288312
  80         0.11901093
  81         0.13288187
  82         0.06770377
  83         0.07559476
  84         0.08432580
  85         0.09415411
  86         0.08433005
  87         0.09415886
Sym=    11a  
Ene=    -0.8808
Spin= Alpha
Occup=    2.00000
   1         0.05582374
   2        -0.08667336
   3        -0.09769348
   4        -0.14822150
   5         0.03443785
   6        -0.00000412
   7        -0.09256425
   8         0.02150642
   9        -0.00000257
  10        -0.00000000
  11         0.00000000
  12         0.00000000
  13         0.00000000
  14        -0.00000000
  15        -0.00000000
  16        -0.08639792
  17         0.12627892
  18         0.14244315
  19        -0.07492313
  20        -0.09878849
  21        -0.00000210
  22        -0.04678946
  23        -0.06169336
  24        -0.00000131
  25         0.00000000
  26         0.00000000
  27         0.00000000
  28         0.00000000
  29         0.00000000
  30        -0.00000000
  31         0.08639789
  32        -0.12627904
  33        -0.14244328
  34         0.07491552
  35        -0.09879632
  36         0.00000169
  37         0.04678470
  38        -0.06169825
  39         0.00000105
  40        -0.00000000
  41         0.00000000
  42         0.00000000
  43        -0.00000000
  44         0.00000000
  45        -0.00000000
  46        -0.05582358
  47         0.08667293
  48         0.09769301
  49         0.14822418
  50         0.03442290
  51         0.00000422
  52         0.09256592
  53         0.02149708
  54         0.00000264
  55         0.00000000
  56         0.00000000
  57        -0.00000000
  58         0.00000000
  59         0.00000000
  60         0.00000000
  61         0.00000004
  62        -0.00000014
  63        -0.00000016
  64         0.00000648
  65         0.16191490
  66         0.00000030
  67         0.00000405
  68         0.10111577
  69         0.00000019
  70        -0.00000000
  71        -0.00000000
  72        -0.00000000
  73        -0.00000000
  74        -0.00000000
  75        -0.00000000
  76        -0.08868546
  77        -0.09902191
  78         0.13137202
  79         0.14668366
  80        -0.13137292
  81        -0.14668466
  82         0.08868443
  83         0.09902075
  84        -0.00000029
  85        -0.00000033
  86        -0.00000027
  87        -0.00000030
Sym=    12a  
Ene=    -0.8139
Spin= Alpha
Occup=    2.00000
   1        -0.00000048
   2         0.00000044
   3         0.00000050
   4        -0.00000709
   5        -0.00000315
   6         0.19124760
   7        -0.00000443
   8        -0.00000197
   9         0.11943402
  10         0.00000000
  11         0.00000000
  12        -0.00000000
  13         0.00000000
  14        -0.00000000
  15        -0.00000000
  16         0.00000056
  17        -0.00000098
  18        -0.00000111
  19        -0.00000278
  20        -0.00000297
  21         0.15414223
  22        -0.00000173
  23        -0.00000186
  24         0.09626174
  25        -0.00000000
  26         0.00000000
  27         0.00000000
  28        -0.00000000
  29        -0.00000000
  30         0.00000000
  31         0.00000056
  32        -0.00000098
  33        -0.00000111
  34        -0.00000274
  35         0.00000233
  36         0.15414227
  37        -0.00000171
  38         0.00000145
  39         0.09626176
  40        -0.00000000
  41         0.00000000
  42         0.00000000
  43         0.00000000
  44        -0.00000000
  45        -0.00000000
  46        -0.00000049
  47         0.00000045
  48         0.00000051
  49        -0.00000706
  50         0.00000240