[Molden Format]
[N_Atoms]
                    11
[Atoms] (AU)
C1          1      6           0.52305432     -2.22447461      0.00003178
C2          2      6          -1.88390111     -1.38878354     -0.00002819
C3          3      6          -1.88377711      1.38895724     -0.00002235
C4          4      6           0.52325247      2.22443245      0.00004055
C5          5      6           2.28534660     -0.00009948      0.00010220
H6          6      1           1.14276520     -4.18477863      0.00004217
H7          7      1          -3.57619886     -2.55926588     -0.00006874
H8          8      1          -3.57597160      2.55958890     -0.00005837
H9          9      1           1.14314087      4.18468000      0.00005871
H10        10      1           3.53272380     -0.00015750      1.66857490
H11        11      1           3.53293743     -0.00015085     -1.66820487
[Charge] (Mulliken)
 -0.200717693756716     
 -0.192180860300856     
 -0.192173323602695     
 -0.200724457377967     
 -0.366999327522821     
  0.193808753639560     
  0.196131245722685     
  0.196132926775288     
  0.193806285693432     
  0.186458442642393     
  0.186458008085082     
[GTO] (AU)
   1
   s   6
  3.047524880E+03  1.834737132E-03
  4.573695180E+02  1.403732281E-02
  1.039486850E+02  6.884262227E-02
  2.921015530E+01  2.321844432E-01
  9.286662960E+00  4.679413484E-01
  3.163926960E+00  3.623119853E-01
   s   3
  7.868272350E+00 -1.193324198E-01
  1.881288540E+00 -1.608541517E-01
  5.442492580E-01  1.143456438E+00
   s   1
  1.687144782E-01  1.000000000E+00
   p   3
  7.868272350E+00  6.899906659E-02
  1.881288540E+00  3.164239610E-01
  5.442492580E-01  7.443082909E-01
   p   1
  1.687144782E-01  1.000000000E+00
   d   1
  8.000000000E-01  1.000000000E+00
 
   2
   s   6
  3.047524880E+03  1.834737132E-03
  4.573695180E+02  1.403732281E-02
  1.039486850E+02  6.884262227E-02
  2.921015530E+01  2.321844432E-01
  9.286662960E+00  4.679413484E-01
  3.163926960E+00  3.623119853E-01
   s   3
  7.868272350E+00 -1.193324198E-01
  1.881288540E+00 -1.608541517E-01
  5.442492580E-01  1.143456438E+00
   s   1
  1.687144782E-01  1.000000000E+00
   p   3
  7.868272350E+00  6.899906659E-02
  1.881288540E+00  3.164239610E-01
  5.442492580E-01  7.443082909E-01
   p   1
  1.687144782E-01  1.000000000E+00
   d   1
  8.000000000E-01  1.000000000E+00
 
   3
   s   6
  3.047524880E+03  1.834737132E-03
  4.573695180E+02  1.403732281E-02
  1.039486850E+02  6.884262227E-02
  2.921015530E+01  2.321844432E-01
  9.286662960E+00  4.679413484E-01
  3.163926960E+00  3.623119853E-01
   s   3
  7.868272350E+00 -1.193324198E-01
  1.881288540E+00 -1.608541517E-01
  5.442492580E-01  1.143456438E+00
   s   1
  1.687144782E-01  1.000000000E+00
   p   3
  7.868272350E+00  6.899906659E-02
  1.881288540E+00  3.164239610E-01
  5.442492580E-01  7.443082909E-01
   p   1
  1.687144782E-01  1.000000000E+00
   d   1
  8.000000000E-01  1.000000000E+00
 
   4
   s   6
  3.047524880E+03  1.834737132E-03
  4.573695180E+02  1.403732281E-02
  1.039486850E+02  6.884262227E-02
  2.921015530E+01  2.321844432E-01
  9.286662960E+00  4.679413484E-01
  3.163926960E+00  3.623119853E-01
   s   3
  7.868272350E+00 -1.193324198E-01
  1.881288540E+00 -1.608541517E-01
  5.442492580E-01  1.143456438E+00
   s   1
  1.687144782E-01  1.000000000E+00
   p   3
  7.868272350E+00  6.899906659E-02
  1.881288540E+00  3.164239610E-01
  5.442492580E-01  7.443082909E-01
   p   1
  1.687144782E-01  1.000000000E+00
   d   1
  8.000000000E-01  1.000000000E+00
 
   5
   s   6
  3.047524880E+03  1.834737132E-03
  4.573695180E+02  1.403732281E-02
  1.039486850E+02  6.884262227E-02
  2.921015530E+01  2.321844432E-01
  9.286662960E+00  4.679413484E-01
  3.163926960E+00  3.623119853E-01
   s   3
  7.868272350E+00 -1.193324198E-01
  1.881288540E+00 -1.608541517E-01
  5.442492580E-01  1.143456438E+00
   s   1
  1.687144782E-01  1.000000000E+00
   p   3
  7.868272350E+00  6.899906659E-02
  1.881288540E+00  3.164239610E-01
  5.442492580E-01  7.443082909E-01
   p   1
  1.687144782E-01  1.000000000E+00
   d   1
  8.000000000E-01  1.000000000E+00
 
   6
   s   3
  1.873113696E+01  3.349460434E-02
  2.825394365E+00  2.347269535E-01
  6.401216923E-01  8.137573261E-01
   s   1
  1.612777588E-01  1.000000000E+00
 
   7
   s   3
  1.873113696E+01  3.349460434E-02
  2.825394365E+00  2.347269535E-01
  6.401216923E-01  8.137573261E-01
   s   1
  1.612777588E-01  1.000000000E+00
 
   8
   s   3
  1.873113696E+01  3.349460434E-02
  2.825394365E+00  2.347269535E-01
  6.401216923E-01  8.137573261E-01
   s   1
  1.612777588E-01  1.000000000E+00
 
   9
   s   3
  1.873113696E+01  3.349460434E-02
  2.825394365E+00  2.347269535E-01
  6.401216923E-01  8.137573261E-01
   s   1
  1.612777588E-01  1.000000000E+00
 
  10
   s   3
  1.873113696E+01  3.349460434E-02
  2.825394365E+00  2.347269535E-01
  6.401216923E-01  8.137573261E-01
   s   1
  1.612777588E-01  1.000000000E+00
 
  11
   s   3
  1.873113696E+01  3.349460434E-02
  2.825394365E+00  2.347269535E-01
  6.401216923E-01  8.137573261E-01
   s   1
  1.612777588E-01  1.000000000E+00
 
[MO]
Sym=     1a  
Ene=   -11.2280
Spin= Alpha
Occup=    2.00000
   1         0.07414134
   2         0.00211060
   3         0.00359481
   4         0.00007340
   5         0.00002453
   6         0.00000001
   7         0.00129176
   8         0.00171062
   9         0.00000006
  10        -0.00040591
  11        -0.00050843
  12        -0.00032388
  13        -0.00018613
  14        -0.00000000
  15        -0.00000001
  16         0.01821258
  17         0.00027712
  18         0.00008250
  19        -0.00005784
  20         0.00002937
  21        -0.00000000
  22         0.00011956
  23        -0.00018724
  24         0.00000001
  25         0.00004763
  26        -0.00002609
  27        -0.00010950
  28         0.00002743
  29         0.00000001
  30         0.00000000
  31         0.01819919
  32         0.00027678
  33         0.00008208
  34        -0.00005782
  35        -0.00002936
  36        -0.00000000
  37         0.00011932
  38         0.00018723
  39         0.00000001
  40         0.00004768
  41        -0.00002603
  42        -0.00010946
  43        -0.00002744
  44         0.00000001
  45        -0.00000000
  46         0.07404644
  47         0.00210796
  48         0.00359605
  49         0.00007339
  50        -0.00002451
  51         0.00000001
  52         0.00129152
  53        -0.00171094
  54         0.00000005
  55        -0.00040571
  56        -0.00050828
  57        -0.00032365
  58         0.00018610
  59        -0.00000000
  60         0.00000000
  61         0.98993089
  62         0.02852960
  63        -0.01741673
  64        -0.00011175
  65        -0.00000001
  66         0.00000002
  67         0.00136496
  68        -0.00000015
  69        -0.00000008
  70        -0.00164232
  71        -0.00172607
  72        -0.00160052
  73        -0.00000003
  74        -0.00000002
  75        -0.00000000
  76        -0.00011877
  77         0.00016819
  78        -0.00004884
  79         0.00012396
  80        -0.00004883
  81         0.00012391
  82        -0.00011874
  83         0.00016806
  84         0.00018815
  85         0.00262995
  86         0.00018812
  87         0.00262985
Sym=     2a  
Ene=   -11.2260
Spin= Alpha
Occup=    2.00000
   1         0.21686655
   2         0.00569328
   3        -0.00004815
   4         0.00009232
   5        -0.00001542
   6         0.00000001
   7        -0.00104526
   8         0.00025008
   9        -0.00000003
  10        -0.00047094
  11        -0.00049685
  12        -0.00055651
  13        -0.00005049
  14         0.00000000
  15        -0.00000000
  16         0.66799387
  17         0.01845713
  18        -0.00527713
  19        -0.00000655
  20         0.00011300
  21         0.00000000
  22        -0.00053035
  23         0.00024174
  24        -0.00000001
  25        -0.00128515
  26        -0.00165143
  27        -0.00167416
  28        -0.00000156
  29         0.00000001
  30        -0.00000000
  31         0.66876153
  32         0.01847843
  33        -0.00529315
  34        -0.00000636
  35        -0.00011329
  36         0.00000000
  37        -0.00053310
  38        -0.00023932
  39        -0.00000001
  40        -0.00128601
  41        -0.00165220
  42        -0.00167583
  43         0.00000149
  44         0.00000001
  45         0.00000000
  46         0.21657143
  47         0.00568495
  48        -0.00003961
  49         0.00009236
  50         0.00001562
  51         0.00000001
  52        -0.00104718
  53        -0.00025184
  54        -0.00000003
  55        -0.00047073
  56        -0.00049665
  57        -0.00055588
  58         0.00005040
  59         0.00000000
  60         0.00000000
  61        -0.05726349
  62        -0.00170698
  63         0.00156566
  64         0.00005205
  65        -0.00000004
  66         0.00000000
  67        -0.00042179
  68        -0.00000033
  69        -0.00000001
  70         0.00010448
  71        -0.00001625
  72         0.00009180
  73        -0.00000010
  74         0.00000000
  75        -0.00000000
  76        -0.00008179
  77         0.00049056
  78        -0.00023236
  79         0.00108184
  80        -0.00023252
  81         0.00108290
  82        -0.00008171
  83         0.00049027
  84        -0.00008010
  85         0.00007774
  86        -0.00008009
  87         0.00007772
Sym=     3a  
Ene=   -11.2250
Spin= Alpha
Occup=    2.00000
   1        -0.30839831
   2        -0.00844613
   3         0.00038548
   4        -0.00009058
   5         0.00001410
   6        -0.00000001
   7         0.00100146
   8        -0.00037330
   9         0.00000003
  10         0.00075818
  11         0.00082677
  12         0.00076614
  13         0.00001324
  14        -0.00000000
  15        -0.00000000
  16        -0.63321364
  17        -0.01744548
  18         0.00966991
  19        -0.00004644
  20        -0.00023510
  21        -0.00000000
  22         0.00072501
  23         0.00180856
  24         0.00000002
  25         0.00092727
  26         0.00087337
  27         0.00143191
  28         0.00001525
  29        -0.00000001
  30        -0.00000000
  31         0.63300561
  32         0.01744016
  33        -0.00967369
  34         0.00004656
  35        -0.00023515
  36         0.00000000
  37        -0.00072728
  38         0.00180856
  39        -0.00000002
  40        -0.00092652
  41        -0.00087263
  42        -0.00143132
  43         0.00001530
  44         0.00000001
  45         0.00000000
  46         0.30725343
  47         0.00841456
  48        -0.00036852
  49         0.00009057
  50         0.00001438
  51         0.00000001
  52        -0.00100174
  53        -0.00037657
  54        -0.00000003
  55        -0.00075639
  56        -0.00082496
  57        -0.00076354
  58         0.00001304
  59         0.00000000
  60        -0.00000000
  61         0.00012805
  62         0.00000359
  63        -0.00000653
  64        -0.00000014
  65        -0.00006508
  66        -0.00000000
  67         0.00000215
  68         0.00052487
  69         0.00000000
  70         0.00000013
  71         0.00000023
  72        -0.00000014
  73         0.00007459
  74         0.00000000
  75         0.00000000
  76         0.00008870
  77        -0.00055006
  78         0.00013125
  79        -0.00100256
  80        -0.00013116
  81         0.00100191
  82        -0.00008838
  83         0.00054839
  84         0.00000022
  85        -0.00000013
  86         0.00000022
  87        -0.00000013
Sym=     4a  
Ene=   -11.2230
Spin= Alpha
Occup=    2.00000
   1        -0.69275493
   2        -0.01926426
   3         0.01177505
   4         0.00004073
   5        -0.00022100
   6        -0.00000001
   7        -0.00085903
   8         0.00241870
   9         0.00000000
  10         0.00102144
  11         0.00103580
  12         0.00154377
  13         0.00011782
  14        -0.00000002
  15         0.00000000
  16         0.23390056
  17         0.00677743
  18        -0.00586583
  19         0.00011186
  20         0.00010617
  21         0.00000000
  22        -0.00206448
  23         0.00012662
  24        -0.00000005
  25        -0.00020141
  26        -0.00039729
  27        -0.00051880
  28        -0.00003045
  29         0.00000001
  30         0.00000000
  31         0.20584634
  32         0.00598871
  33        -0.00499512
  34         0.00009406
  35        -0.00009501
  36         0.00000000
  37        -0.00183971
  38        -0.00022568
  39        -0.00000005
  40        -0.00018652
  41        -0.00038834
  42        -0.00046335
  43         0.00003501
  44         0.00000001
  45         0.00000000
  46        -0.63749662
  47        -0.01772531
  48         0.01086356
  49         0.00004479
  50         0.00020002
  51        -0.00000001
  52        -0.00074454
  53        -0.00225675
  54        -0.00000001
  55         0.00094050
  56         0.00094701
  57         0.00141768
  58        -0.00010680
  59        -0.00000002
  60        -0.00000000
  61         0.09191757
  62         0.00247616
  63        -0.00713954
  64        -0.00015522
  65         0.00000093
  66        -0.00000001
  67         0.00259349
  68         0.00005754
  69         0.00000013
  70         0.00031675
  71         0.00040775
  72        -0.00005974
  73         0.00001316
  74         0.00000001
  75         0.00000000
  76         0.00019119
  77        -0.00091072
  78        -0.00006175
  79         0.00014769
  80        -0.00005566
  81         0.00012033
  82         0.00017614
  83        -0.00083680
  84         0.00024283
  85        -0.00027160
  86         0.00024282
  87        -0.00027153
Sym=     5a  
Ene=   -11.2230
Spin= Alpha
Occup=    2.00000
   1         0.60320028
   2         0.01679813
   3        -0.00985783
   4         0.00004932
   5         0.00022877
   6         0.00000001
   7         0.00125078
   8        -0.00172936
   9         0.00000002
  10        -0.00088803
  11        -0.00097831
  12        -0.00137880
  13        -0.00012038
  14         0.00000001
  15        -0.00000000
  16        -0.29858621
  17        -0.00839134
  18         0.00948865
  19        -0.00019665
  20        -0.00011845
  21        -0.00000001
  22         0.00245464
  23         0.00110429
  24         0.00000007
  25         0.00014551
  26         0.00007051
  27         0.00058491
  28        -0.00005373
  29        -0.00000001
  30        -0.00000000
  31         0.31737706
  32         0.00893767
  33        -0.00996240
  34         0.00020571
  35        -0.00012723
  36         0.00000001
  37        -0.00262602
  38         0.00108919
  39        -0.00000007
  40        -0.00016150
  41        -0.00010368
  42        -0.00062672
  43        -0.00005084
  44         0.00000001
  45         0.00000000
  46        -0.66197044
  47        -0.01843203
  48         0.01085433
  49        -0.00004562
  50         0.00024732
  51        -0.00000001
  52        -0.00132081
  53        -0.00193473
  54        -0.00000003
  55         0.00097486
  56         0.00106612
  57         0.00150969
  58        -0.00013032
  59        -0.00000002
  60        -0.00000000
  61         0.00401606
  62         0.00010815
  63        -0.00031407
  64        -0.00000685
  65        -0.00001987
  66        -0.00000000
  67         0.00011425
  68        -0.00131815
  69         0.00000000
  70         0.00001397
  71         0.00001808
  72        -0.00000258
  73        -0.00030008
  74         0.00000000
  75        -0.00000001
  76        -0.00016413
  77         0.00080960
  78         0.00006449
  79        -0.00028846
  80        -0.00006945
  81         0.00029932
  82         0.00018039
  83        -0.00088698
  84         0.00001072
  85        -0.00001214
  86         0.00001072
  87        -0.00001214
Sym=     6a  
Ene=    -1.1437
Spin= Alpha
Occup=    2.00000
   1        -0.09882809
   2         0.18520447
   3         0.11640439
   4        -0.03322882
   5         0.07102675
   6        -0.00000027
   7        -0.00174891
   8         0.00795238
   9        -0.00000000
  10         0.00747694
  11         0.00887952
  12        -0.00903696
  13        -0.00136019
  14         0.00000051
  15         0.00000009
  16        -0.10098335
  17         0.18980531
  18         0.12170274
  19         0.06993704
  20         0.03920978
  21         0.00000206
  22         0.00725263
  23         0.00599254
  24         0.00000026
  25         0.00861323
  26         0.00759329
  27        -0.00908223
  28         0.00108215
  29         0.00000055
  30         0.00000008
  31        -0.10098294
  32         0.18980498
  33         0.12170200
  34         0.06993288
  35        -0.03921658
  36         0.00000188
  37         0.00725190
  38        -0.00599316
  39         0.00000023
  40         0.00861298
  41         0.00759353
  42        -0.00908228
  43        -0.00108230
  44         0.00000054
  45         0.00000000
  46        -0.09882689
  47         0.18520169
  48         0.11640236
  49        -0.03323489
  50        -0.07102333
  51        -0.00000054
  52        -0.00174965
  53        -0.00795216
  54        -0.00000003
  55         0.00747704
  56         0.00887922
  57        -0.00903682
  58         0.00136033
  59         0.00000052
  60        -0.00000001
  61        -0.09516253
  62         0.17531280
  63         0.13677332
  64        -0.06587577
  65         0.00000250
  66        -0.00000164
  67        -0.00882337
  68         0.00000025
  69         0.00000076
  70         0.00935716
  71         0.00527118
  72        -0.00154675
  73        -0.00000013
  74         0.00000041
  75         0.00000002
  76         0.03367743
  77         0.00294161
  78         0.03426464
  79         0.00288740
  80         0.03426457
  81         0.00288734
  82         0.03367672
  83         0.00294158
  84         0.04105732
  85         0.00097572
  86         0.04105634
  87         0.00097649
Sym=     7a  
Ene=    -0.9568
Spin= Alpha
Occup=    2.00000
   1         0.12705966
   2        -0.24389109
   3        -0.21752497
   4         0.06730692
   5         0.00034097
   6         0.00000142
   7         0.00769648
   8         0.00288962
   9         0.00000000
  10        -0.01004239
  11        -0.00475785
  12         0.00911431
  13         0.00587259
  14        -0.00000057
  15         0.00000005
  16         0.08912593
  17        -0.17331548
  18        -0.13189086
  19        -0.08274757
  20         0.09304395
  21        -0.00000205
  22         0.00733550
  23         0.02397109
  24         0.00000019
  25        -0.01467259
  26         0.00762349
  27         0.00564366
  28         0.00370507
  29        -0.00000059
  30         0.00000012
  31        -0.08913284
  32         0.17332937
  33         0.13190132
  34         0.08275472
  35         0.09303268
  36         0.00000241
  37        -0.00733448
  38         0.02397139
  39        -0.00000010
  40         0.01467337
  41        -0.00762314
  42        -0.00564430
  43         0.00370255
  44         0.00000060
  45         0.00000011
  46        -0.12705838
  47         0.24388772
  48         0.21752301
  49        -0.06731415
  50         0.00034729
  51        -0.00000140
  52        -0.00769771
  53         0.00288918
  54         0.00000001
  55         0.01004340
  56         0.00475626
  57        -0.00911413
  58         0.00587275
  59         0.00000059
  60         0.00000011
  61         0.00000350
  62        -0.00000658
  63        -0.00000702
  64         0.00000420
  65         0.10816719
  66         0.00000021
  67         0.00000066
  68         0.02017405
  69         0.00000004
  70        -0.00000121
  71         0.00000101
  72        -0.00000022
  73        -0.01475678
  74        -0.00000003
  75        -0.00000050
  76        -0.08285449
  77        -0.02130156
  78        -0.05680924
  79        -0.00755267
  80         0.05681379
  81         0.00755363
  82         0.08285239
  83         0.02130128
  84        -0.00000252
  85        -0.00000065
  86        -0.00000252
  87        -0.00000065
Sym=     8a  
Ene=    -0.9486
Spin= Alpha
Occup=    2.00000
   1        -0.02194775
   2         0.04397898
   3         0.02570219
   4         0.13087857
   5         0.03425565
   6         0.00000423
   7         0.02536955
   8        -0.00006651
   9         0.00000080
  10        -0.00185999
  11         0.01010141
  12        -0.00242615
  13         0.01281477
  14         0.00000015
  15         0.00000047
  16         0.10057333
  17        -0.19532826
  18        -0.15806953
  19         0.02219051
  20        -0.05162477
  21         0.00000062
  22         0.01320570
  23        -0.00745294
  24         0.00000032
  25        -0.00253104
  26        -0.01290138
  27         0.00819993
  28        -0.00218713
  29        -0.00000027
  30        -0.00000010
  31         0.10056809
  32        -0.19531864
  33        -0.15806108
  34         0.02220034
  35         0.05162861
  36         0.00000085
  37         0.01320668
  38         0.00745293
  39         0.00000036
  40        -0.00252991
  41        -0.01290219
  42         0.00819967
  43         0.00218629
  44        -0.00000026
  45        -0.00000000
  46        -0.02195484
  47         0.04399246
  48         0.02571383
  49         0.13086999
  50        -0.03426693
  51         0.00000409
  52         0.02536847
  53         0.00006471
  54         0.00000080
  55        -0.00186139
  56         0.01010362
  57        -0.00242664
  58        -0.01281316
  59         0.00000010
  60        -0.00000041
  61        -0.14686400
  62         0.27753587
  63         0.28385067
  64         0.01873541
  65         0.00000193
  66         0.00000215
  67         0.01173035
  68        -0.00000018
  69         0.00000143
  70         0.00450486
  71         0.00256977
  72         0.00932113
  73        -0.00000049
  74        -0.00000047
  75        -0.00000002
  76         0.01923146
  77         0.00445554
  78        -0.06829235
  79        -0.01797948
  80        -0.06828917
  81        -0.01797875
  82         0.01923605
  83         0.00445675
  84         0.10478847
  85         0.02702944
  86         0.10478845
  87         0.02702967
Sym=     9a  
Ene=    -0.7474
Spin= Alpha
Occup=    2.00000
   1         0.08772625
   2        -0.17442105
   3        -0.15307052
   4         0.04928992
   5         0.09793281
   6         0.00000233
   7        -0.00436900
   8         0.06298795
   9         0.00000036
  10         0.00071465
  11        -0.00999861
  12         0.00620651
  13         0.01049238
  14        -0.00000008
  15         0.00000033
  16        -0.04356130
  17         0.08942196
  18         0.07976703
  19        -0.16536816
  20         0.12556534
  21        -0.00000344
  22        -0.07060268
  23         0.02750826
  24        -0.00000147
  25        -0.00280682
  26         0.01294411
  27        -0.00356112
  28         0.00803530
  29         0.00000004
  30         0.00000026
  31        -0.04355884
  32         0.08941737
  33         0.07976283
  34        -0.16538026
  35        -0.12555392
  36        -0.00000395
  37        -0.07060496
  38        -0.02750411
  39        -0.00000158
  40        -0.00280833
  41         0.01294553
  42        -0.00356101
  43        -0.00803353
  44         0.00000001
  45        -0.00000018
  46         0.08772611
  47        -0.17442014
  48        -0.15306938
  49         0.04928492
  50        -0.09793429
  51         0.00000193
  52        -0.00437361
  53        -0.06298535
  54         0.00000010
  55         0.00071279
  56        -0.00999644
  57         0.00620645
  58        -0.01049352
  59        -0.00000012
  60        -0.00000041
  61        -0.07715691
  62         0.14586555
  63         0.16525829
  64         0.13094388
  65        -0.00000517
  66         0.00000624
  67         0.07168913
  68        -0.00000316
  69         0.00000319
  70         0.00235217
  71        -0.01209607
  72         0.01461008
  73        -0.00000078
  74        -0.00000100
  75        -0.00000006
  76        -0.11926146
  77        -0.05104463
  78         0.07358349
  79         0.03164543
  80         0.07358085
  81         0.03164427
  82        -0.11925871
  83        -0.05104352
  84         0.10365597
  85         0.04841874
  86         0.10365817
  87         0.04841942
Sym=    10a  
Ene=    -0.7199
Spin= Alpha
Occup=    2.00000
   1         0.06090150
   2        -0.12056084
   3        -0.10336889
   4        -0.17645831
   5         0.04454694
   6        -0.00000489
   7        -0.07003209
   8         0.04457005
   9        -0.00000196
  10         0.00532634
  11        -0.01617809
  12         0.00493026
  13        -0.00094745
  14        -0.00000007
  15        -0.00000014
  16        -0.08752300
  17         0.17410212
  18         0.14415045
  19        -0.06755492
  20        -0.10854543
  21        -0.00000181
  22        -0.07238287
  23        -0.05934361
  24        -0.00000178
  25         0.01234950
  26        -0.00287399
  27        -0.00599208
  28         0.01146279
  29         0.00000050
  30         0.00000027
  31         0.08752432
  32        -0.17410541
  33        -0.14415412
  34         0.06755723
  35        -0.10855378
  36         0.00000138
  37         0.07238227
  38        -0.05935132
  39         0.00000153
  40        -0.01234791
  41         0.00287182
  42         0.00599222
  43         0.01146468
  44        -0.00000046
  45         0.00000025
  46        -0.06090261
  47         0.12056278
  48         0.10336860
  49         0.17645664
  50         0.04452384
  51         0.00000505
  52         0.07003369
  53         0.04456196
  54         0.00000213
  55        -0.00532647
  56         0.01617810
  57        -0.00493035
  58        -0.00094511
  59         0.00000007
  60        -0.00000004
  61         0.00000043
  62        -0.00000075
  63        -0.00000043
  64         0.00000396
  65         0.18363986
  66         0.00000035
  67         0.00000126
  68         0.07155461
  69         0.00000013
  70        -0.00000084
  71         0.00000104
  72        -0.00000028
  73        -0.01337751
  74        -0.00000003
  75        -0.00000050
  76        -0.10834646
  77        -0.05154291
  78         0.14309889
  79         0.06179854
  80        -0.14310616
  81        -0.06180227
  82         0.10834268
  83         0.05154055
  84        -0.00000168
  85        -0.00000097
  86        -0.00000167
  87        -0.00000097
Sym=    11a  
Ene=    -0.6873
Spin= Alpha
Occup=    2.00000
   1        -0.01578705
   2         0.02986488
   3         0.06199449
   4         0.05633736
   5        -0.21317646
   6         0.00000066
   7         0.02126778
   8        -0.07688069
   9         0.00000041
  10         0.00057572
  11         0.00414173
  12        -0.00007643
  13        -0.00173733
  14         0.00000003
  15        -0.00000009
  16        -0.01124221
  17         0.02291826
  18         0.04424648
  19        -0.17575877
  20        -0.13908243
  21        -0.00000472
  22        -0.06790331
  23        -0.05105197
  24        -0.00000185
  25         0.00432805
  26         0.00072644
  27         0.00010177
  28         0.00164755
  29         0.00000004
  30        -0.00000001
  31        -0.01123878
  32         0.02291139
  33         0.04423962
  34        -0.17574262
  35         0.13909375
  36        -0.00000415
  37        -0.06789608
  38         0.05105597
  39        -0.00000164
  40         0.00432745
  41         0.00072667
  42         0.00010197
  43        -0.00164741
  44         0.00000003
  45         0.00000001
  46        -0.01579020
  47         0.02987118
  48         0.06200099
  49         0.05636382
  50         0.21316925
  51         0.00000150
  52         0.02127745
  53         0.07687781
  54         0.00000071
  55         0.00057591
  56         0.00414190
  57        -0.00007663
  58         0.00173753
  59         0.00000003
  60         0.00000011
  61        -0.00384725
  62         0.00656024
  63         0.01480474
  64         0.16686042
  65        -0.00000220
  66         0.00000374
  67         0.06746011
  68        -0.00000114
  69         0.00000088
  70        -0.00720696
  71        -0.00061657
  72         0.01133693
  73        -0.00000011
  74        -0.00000130
  75        -0.00000003
  76         0.13345113
  77         0.08081968
  78         0.13124829
  79         0.07915311
  80         0.13124195
  81         0.07914960
  82         0.13345390
  83         0.08082127
  84         0.05926622
  85         0.03988073
  86         0.05927192
  87         0.03988313
Sym=    12a  
Ene=    -0.5871
Spin= Alpha
Occup=    2.00000
   1         0.00000021
   2        -0.00000070
   3        -0.00000122
   4        -0.00000308
   5        -0.00000143
   6         0.12727908
   7        -0.00000181
   8        -0.00000119
   9         0.06117259
  10        -0.00000033
  11        -0.00000015
  12         0.00000032
  13        -0.00000010
  14         0.00119923
  15         0.00919631
  16         0.00000038
  17        -0.00000059
  18        -0.00000083
  19        -0.00000547
  20        -0.00000437
  21         0.08924414
  22        -0.00000338
  23        -0.00000216
  24         0.05009465
  25        -0.00000009
  26        -0.00000014
  27         0.00000046
  28         0.00000007
  29         0.00783449
  30         0.00170428
  31         0.00000038
  32        -0.00000058
  33        -0.00000086
  34        -0.00000540
  35         0.00000399
  36         0.08924324
  37        -0.00000336
  38         0.00000196
  39         0.05009397
  40        -0.00000009
  41        -0.00000013
  42         0.00000044
  43        -0.00000010
  44         0.00783437
  45        -0.00170501
  46         0.00000020
  47        -0.00000069
  48        -0.00000119
  49        -0.00000311
  50         0.00000091