[Molden Format]
[N_Atoms]
                    11
[Atoms] (AU)
C1          1      6           0.52013228     -2.25130028      0.00004699
C2          2      6          -2.05105394     -1.36522701     -0.00003674
C3          3      6          -2.05092850      1.36541338     -0.00003183
C4          4      6           0.52033445      2.25126014      0.00005687
C5          5      6           2.08395398     -0.00008946      0.00010726
H6          6      1           1.15685087     -4.21004533      0.00007062
H7          7      1          -3.74387483     -2.55015438     -0.00009678
H8          8      1          -3.74364423      2.55049017     -0.00008776
H9          9      1           1.15722864      4.20994760      0.00008755
H10        10      1           3.95714332     -0.00017605      1.21570089
H11        11      1           3.95722998     -0.00017068     -1.21534925
[Charge] (Mulliken)
  0.000000000000000E+000
  0.000000000000000E+000
  0.000000000000000E+000
  0.000000000000000E+000
  0.000000000000000E+000
  0.000000000000000E+000
  0.000000000000000E+000
  0.000000000000000E+000
  0.000000000000000E+000
  0.000000000000000E+000
  0.000000000000000E+000
[GTO] (AU)
   1
   s   6
  3.047524880E+03  1.834737132E-03
  4.573695180E+02  1.403732281E-02
  1.039486850E+02  6.884262227E-02
  2.921015530E+01  2.321844432E-01
  9.286662960E+00  4.679413484E-01
  3.163926960E+00  3.623119853E-01
   s   3
  7.868272350E+00 -1.193324198E-01
  1.881288540E+00 -1.608541517E-01
  5.442492580E-01  1.143456438E+00
   s   1
  1.687144782E-01  1.000000000E+00
   p   3
  7.868272350E+00  6.899906659E-02
  1.881288540E+00  3.164239610E-01
  5.442492580E-01  7.443082909E-01
   p   1
  1.687144782E-01  1.000000000E+00
   d   1
  8.000000000E-01  1.000000000E+00
 
   2
   s   6
  3.047524880E+03  1.834737132E-03
  4.573695180E+02  1.403732281E-02
  1.039486850E+02  6.884262227E-02
  2.921015530E+01  2.321844432E-01
  9.286662960E+00  4.679413484E-01
  3.163926960E+00  3.623119853E-01
   s   3
  7.868272350E+00 -1.193324198E-01
  1.881288540E+00 -1.608541517E-01
  5.442492580E-01  1.143456438E+00
   s   1
  1.687144782E-01  1.000000000E+00
   p   3
  7.868272350E+00  6.899906659E-02
  1.881288540E+00  3.164239610E-01
  5.442492580E-01  7.443082909E-01
   p   1
  1.687144782E-01  1.000000000E+00
   d   1
  8.000000000E-01  1.000000000E+00
 
   3
   s   6
  3.047524880E+03  1.834737132E-03
  4.573695180E+02  1.403732281E-02
  1.039486850E+02  6.884262227E-02
  2.921015530E+01  2.321844432E-01
  9.286662960E+00  4.679413484E-01
  3.163926960E+00  3.623119853E-01
   s   3
  7.868272350E+00 -1.193324198E-01
  1.881288540E+00 -1.608541517E-01
  5.442492580E-01  1.143456438E+00
   s   1
  1.687144782E-01  1.000000000E+00
   p   3
  7.868272350E+00  6.899906659E-02
  1.881288540E+00  3.164239610E-01
  5.442492580E-01  7.443082909E-01
   p   1
  1.687144782E-01  1.000000000E+00
   d   1
  8.000000000E-01  1.000000000E+00
 
   4
   s   6
  3.047524880E+03  1.834737132E-03
  4.573695180E+02  1.403732281E-02
  1.039486850E+02  6.884262227E-02
  2.921015530E+01  2.321844432E-01
  9.286662960E+00  4.679413484E-01
  3.163926960E+00  3.623119853E-01
   s   3
  7.868272350E+00 -1.193324198E-01
  1.881288540E+00 -1.608541517E-01
  5.442492580E-01  1.143456438E+00
   s   1
  1.687144782E-01  1.000000000E+00
   p   3
  7.868272350E+00  6.899906659E-02
  1.881288540E+00  3.164239610E-01
  5.442492580E-01  7.443082909E-01
   p   1
  1.687144782E-01  1.000000000E+00
   d   1
  8.000000000E-01  1.000000000E+00
 
   5
   s   6
  3.047524880E+03  1.834737132E-03
  4.573695180E+02  1.403732281E-02
  1.039486850E+02  6.884262227E-02
  2.921015530E+01  2.321844432E-01
  9.286662960E+00  4.679413484E-01
  3.163926960E+00  3.623119853E-01
   s   3
  7.868272350E+00 -1.193324198E-01
  1.881288540E+00 -1.608541517E-01
  5.442492580E-01  1.143456438E+00
   s   1
  1.687144782E-01  1.000000000E+00
   p   3
  7.868272350E+00  6.899906659E-02
  1.881288540E+00  3.164239610E-01
  5.442492580E-01  7.443082909E-01
   p   1
  1.687144782E-01  1.000000000E+00
   d   1
  8.000000000E-01  1.000000000E+00
 
   6
   s   3
  1.873113696E+01  3.349460434E-02
  2.825394365E+00  2.347269535E-01
  6.401216923E-01  8.137573261E-01
   s   1
  1.612777588E-01  1.000000000E+00
 
   7
   s   3
  1.873113696E+01  3.349460434E-02
  2.825394365E+00  2.347269535E-01
  6.401216923E-01  8.137573261E-01
   s   1
  1.612777588E-01  1.000000000E+00
 
   8
   s   3
  1.873113696E+01  3.349460434E-02
  2.825394365E+00  2.347269535E-01
  6.401216923E-01  8.137573261E-01
   s   1
  1.612777588E-01  1.000000000E+00
 
   9
   s   3
  1.873113696E+01  3.349460434E-02
  2.825394365E+00  2.347269535E-01
  6.401216923E-01  8.137573261E-01
   s   1
  1.612777588E-01  1.000000000E+00
 
  10
   s   3
  1.873113696E+01  3.349460434E-02
  2.825394365E+00  2.347269535E-01
  6.401216923E-01  8.137573261E-01
   s   1
  1.612777588E-01  1.000000000E+00
 
  11
   s   3
  1.873113696E+01  3.349460434E-02
  2.825394365E+00  2.347269535E-01
  6.401216923E-01  8.137573261E-01
   s   1
  1.612777588E-01  1.000000000E+00
 
[MO]
Sym=     1a  
Ene=     0.0000
Spin= Alpha
Occup=    2.00001
   1        -0.69470612
   2        -0.01460212
   3         0.01172213
   4         0.00021583
   5        -0.00199662
   6         0.00000001
   7        -0.00021226
   8         0.00083017
   9         0.00000000
  10         0.00122978
  11         0.00129797
  12         0.00142117
  13        -0.00008155
  14        -0.00000001
  15        -0.00000000
  16        -0.12668152
  17        -0.00226044
  18        -0.00057586
  19         0.00124060
  20        -0.00082377
  21         0.00000004
  22        -0.00062696
  23         0.00042234
  24        -0.00000002
  25         0.00077557
  26         0.00032830
  27         0.00030289
  28        -0.00015872
  29         0.00000002
  30        -0.00000001
  31         0.12667498
  32         0.00226032
  33         0.00057591
  34        -0.00124066
  35        -0.00082364
  36        -0.00000004
  37         0.00062699
  38         0.00042230
  39         0.00000002
  40        -0.00077558
  41        -0.00032826
  42        -0.00030287
  43        -0.00015867
  44        -0.00000002
  45        -0.00000001
  46         0.69469463
  47         0.01460189
  48        -0.01172194
  49        -0.00021602
  50        -0.00199656
  51        -0.00000002
  52         0.00021234
  53         0.00083014
  54         0.00000000
  55        -0.00122977
  56        -0.00129794
  57        -0.00142115
  58        -0.00008155
  59         0.00000001
  60        -0.00000000
  61         0.00000108
  62         0.00000003
  63        -0.00000006
  64        -0.00000010
  65        -0.00200549
  66        -0.00000000
  67         0.00000007
  68         0.00133351
  69         0.00000000
  70         0.00000004
  71        -0.00000003
  72        -0.00000000
  73         0.00050655
  74         0.00000000
  75         0.00000002
  76         0.00239485
  77        -0.00021805
  78         0.00011646
  79        -0.00016304
  80        -0.00011644
  81         0.00016303
  82        -0.00239481
  83         0.00021804
  84        -0.00000000
  85         0.00000000
  86        -0.00000000
  87        -0.00000000
Sym=     2a  
Ene=     0.0000
Spin= Alpha
Occup=    2.00001
   1         0.70429131
   2         0.01480131
   3        -0.01338519
   4        -0.00051510
   5         0.00242730
   6        -0.00000002
   7        -0.00002894
   8        -0.00102078
   9        -0.00000001
  10        -0.00106492
  11        -0.00114150
  12        -0.00143784
  13         0.00007239
  14         0.00000001
  15         0.00000000
  16         0.03331205
  17         0.00004574
  18         0.00239153
  19        -0.00127060
  20         0.00051753
  21        -0.00000004
  22         0.00100455
  23        -0.00008386
  24         0.00000003
  25        -0.00059052
  26        -0.00021443
  27        -0.00013645
  28         0.00019683
  29        -0.00000002
  30         0.00000001
  31         0.03330833
  32         0.00004564
  33         0.00239169
  34        -0.00127068
  35        -0.00051741
  36        -0.00000004
  37         0.00100458
  38         0.00008376
  39         0.00000003
  40        -0.00059056
  41        -0.00021440
  42        -0.00013644
  43        -0.00019680
  44        -0.00000002
  45        -0.00000001
  46         0.70430403
  47         0.01480159
  48        -0.01338544
  49        -0.00051534
  50        -0.00242730
  51        -0.00000003
  52        -0.00002884
  53         0.00102080
  54        -0.00000000
  55        -0.00106495
  56        -0.00114151
  57        -0.00143787
  58        -0.00007240
  59         0.00000001
  60        -0.00000000
  61        -0.05305518
  62        -0.00236936
  63         0.00756079
  64         0.00150873
  65        -0.00000009
  66         0.00000005
  67        -0.00144532
  68         0.00000008
  69        -0.00000005
  70        -0.00038222
  71        -0.00087509
  72         0.00001735
  73        -0.00000002
  74        -0.00000002
  75        -0.00000000
  76        -0.00266251
  77         0.00025657
  78         0.00005411
  79         0.00023695
  80         0.00005413
  81         0.00023695
  82        -0.00266256
  83         0.00025658
  84         0.00021920
  85         0.00023562
  86         0.00021920
  87         0.00023562
Sym=     3a  
Ene=     0.0000
Spin= Alpha
Occup=    2.00000
   1         0.12639239
   2         0.00323657
   3        -0.00577005
   4        -0.00144419
   5         0.00105664
   6        -0.00000005
   7         0.00092700
   8        -0.00064603
   9         0.00000003
  10         0.00040867
  11        -0.00001293
  12        -0.00021288
  13        -0.00015833
  14         0.00000002
  15        -0.00000000
  16        -0.69446564
  17        -0.01543284
  18         0.01652924
  19        -0.00198465
  20        -0.00256331
  21        -0.00000007
  22         0.00126348
  23         0.00167917
  24         0.00000004
  25         0.00094596
  26         0.00044810
  27         0.00138364
  28         0.00014929
  29        -0.00000002
  30         0.00000000
  31         0.69440626
  32         0.01543161
  33        -0.01652840
  34         0.00198426
  35        -0.00256343
  36         0.00000006
  37        -0.00126326
  38         0.00167934
  39        -0.00000004
  40        -0.00094583
  41        -0.00044798
  42        -0.00138351
  43         0.00014933
  44         0.00000002
  45         0.00000001
  46        -0.12638337
  47        -0.00323633
  48         0.00576966
  49         0.00144415
  50         0.00105647
  51         0.00000005
  52        -0.00092698
  53        -0.00064589
  54        -0.00000003
  55        -0.00040867
  56         0.00001294
  57         0.00021287
  58        -0.00015827
  59        -0.00000002
  60        -0.00000001
  61         0.00000375
  62         0.00000008
  63         0.00000000
  64         0.00000003
  65         0.00030055
  66         0.00000000
  67        -0.00000004
  68        -0.00046795
  69        -0.00000000
  70        -0.00000002
  71        -0.00000001
  72        -0.00000001
  73        -0.00011420
  74        -0.00000000
  75        -0.00000000
  76        -0.00076154
  77        -0.00011958
  78         0.00258021
  79        -0.00007322
  80        -0.00258000
  81         0.00007319
  82         0.00076150
  83         0.00011956
  84         0.00000000
  85         0.00000001
  86         0.00000000
  87         0.00000001
Sym=     4a  
Ene=     0.0000
Spin= Alpha
Occup=    2.00000
   1        -0.03703678
   2        -0.00141811
   3         0.00328106
   4         0.00161758
   5        -0.00029291
   6         0.00000005
   7        -0.00084295
   8         0.00070055
   9        -0.00000003
  10        -0.00043986
  11         0.00001434
  12         0.00001296
  13         0.00016014
  14        -0.00000002
  15         0.00000001
  16         0.70076171
  17         0.01470012
  18        -0.00955542
  19         0.00168155
  20         0.00067836
  21         0.00000006
  22        -0.00072146
  23         0.00061308
  24        -0.00000002
  25        -0.00132433
  26        -0.00169657
  27        -0.00153649
  28        -0.00007962
  29         0.00000001
  30        -0.00000000
  31         0.70082179
  32         0.01470147
  33        -0.00955681
  34         0.00168164
  35        -0.00067874
  36         0.00000006
  37        -0.00072162
  38        -0.00061286
  39        -0.00000003
  40        -0.00132440
  41        -0.00169662
  42        -0.00153662
  43         0.00007959
  44         0.00000001
  45         0.00000000
  46        -0.03704157
  47        -0.00141827
  48         0.00328146
  49         0.00161773
  50         0.00029284
  51         0.00000006
  52        -0.00084309
  53        -0.00070053
  54        -0.00000003
  55        -0.00043993
  56         0.00001436
  57         0.00001296
  58        -0.00016010
  59        -0.00000002
  60        -0.00000001
  61        -0.10936730
  62        -0.00259168
  63         0.00087615
  64        -0.00034291
  65         0.00000002
  66        -0.00000001
  67         0.00015839
  68        -0.00000002
  69         0.00000001
  70         0.00034967
  71         0.00033190
  72         0.00022313
  73        -0.00000000
  74         0.00000000
  75         0.00000000
  76         0.00026695
  77         0.00026841
  78        -0.00229728
  79         0.00033892
  80        -0.00229749
  81         0.00033893
  82         0.00026700
  83         0.00026842
  84         0.00001857
  85        -0.00024121
  86         0.00001857
  87        -0.00024120
Sym=     5a  
Ene=     0.0000
Spin= Alpha
Occup=    2.00000
   1         0.03394606
   2         0.00006841
   3         0.00261000
   4        -0.00086200
   5        -0.00146876
   6        -0.00000003
   7         0.00129014
   8         0.00009756
   9         0.00000005
  10        -0.00041413
  11        -0.00057360
  12        -0.00015141
  13        -0.00026052
  14        -0.00000001
  15        -0.00000001
  16         0.07907644
  17         0.00164787
  18        -0.00031899
  19         0.00048126
  20         0.00031151
  21         0.00000002
  22         0.00036597
  23         0.00002572
  24         0.00000001
  25        -0.00010938
  26        -0.00014947
  27        -0.00017768
  28        -0.00002870
  29         0.00000000
  30        -0.00000000
  31         0.07907734
  32         0.00164789
  33        -0.00031902
  34         0.00048124
  35        -0.00031155
  36         0.00000002
  37         0.00036596
  38        -0.00002575
  39         0.00000001
  40        -0.00010938
  41        -0.00014948
  42        -0.00017768
  43         0.00002869
  44         0.00000000
  45         0.00000000
  46         0.03394565
  47         0.00006840
  48         0.00261002
  49        -0.00086187
  50         0.00146885
  51        -0.00000003
  52         0.00129013
  53        -0.00009768
  54         0.00000005
  55        -0.00041409
  56        -0.00057363
  57        -0.00015141
  58         0.00026050
  59        -0.00000001
  60         0.00000001
  61         0.99011190
  62         0.02416221
  63        -0.01688061
  64         0.00034555
  65        -0.00000002
  66         0.00000001
  67        -0.00167816
  68         0.00000007
  69        -0.00000006
  70        -0.00200331
  71        -0.00178005
  72        -0.00208004
  73         0.00000001
  74         0.00000000
  75         0.00000000
  76         0.00012872
  77        -0.00022929
  78        -0.00049128
  79        -0.00003979
  80        -0.00049128
  81        -0.00003979
  82         0.00012873
  83        -0.00022929
  84        -0.00105432
  85         0.00208257
  86        -0.00105432
  87         0.00208257
Sym=     6a  
Ene=     0.0000
Spin= Alpha
Occup=    1.98417
   1        -0.09250722
   2         0.19962246
   3         0.13819976
   4         0.00566602
   5         0.02379752
   6         0.00000046
   7        -0.00269051
   8        -0.00103240
   9        -0.00000002
  10         0.00710401
  11         0.01292796
  12        -0.00978352
  13        -0.00060023
  14         0.00000067
  15         0.00000002
  16        -0.07892806
  17         0.16939948
  18         0.09860203
  19         0.02323359
  20         0.00687723
  21         0.00000081
  22        -0.00615281
  23        -0.00207278
  24        -0.00000020
  25         0.01017196
  26         0.00735705
  27        -0.00872023
  28         0.00178821
  29         0.00000074
  30         0.00000010
  31        -0.07892823
  32         0.16939971
  33         0.09860273
  34         0.02323299
  35        -0.00687913
  36         0.00000080
  37        -0.00615237
  38         0.00207308
  39        -0.00000019
  40         0.01017173
  41         0.00735732
  42        -0.00872025
  43        -0.00178848
  44         0.00000074
  45        -0.00000003
  46        -0.09250750
  47         0.19962308
  48         0.13819987
  49         0.00566396
  50        -0.02379798
  51         0.00000031
  52        -0.00269027
  53         0.00103297
  54        -0.00000004
  55         0.00710410
  56         0.01292789
  57        -0.00978354
  58         0.00060085
  59         0.00000068
  60         0.00000009
  61        -0.11177737
  62         0.22485248
  63         0.17838949
  64        -0.00869941
  65         0.00000059
  66        -0.00000023
  67         0.04656105
  68        -0.00000204
  69         0.00000171
  70         0.01622296
  71         0.00680821
  72        -0.00522852
  73        -0.00000051
  74         0.00000088
  75         0.00000003
  76         0.06454437
  77         0.01461350
  78         0.05115729
  79         0.00949195
  80         0.05115742
  81         0.00949210
  82         0.06454464
  83         0.01461345
  84         0.06886020
  85        -0.00234956
  86         0.06886026
  87        -0.00234960
Sym=     7a  
Ene=     0.0000
Spin= Alpha
Occup=    1.97933
   1         0.10554958
   2        -0.23572050
   3        -0.19966465
   4        -0.01576988
   5         0.11965634
   6        -0.00000070
   7        -0.02917316
   8         0.07600331
   9        -0.00000111
  10        -0.00605441
  11        -0.01514684
  12         0.00936258
  13         0.00724361
  14        -0.00000061
  15         0.00000026
  16         0.06166489
  17        -0.13709761
  18        -0.12852361
  19         0.01737597
  20         0.09080282
  21         0.00000072
  22         0.03360153
  23         0.01968977
  24         0.00000120
  25        -0.01284034
  26         0.00062211
  27         0.00560568
  28        -0.00176490
  29        -0.00000073
  30        -0.00000007
  31        -0.06166521
  32         0.13709829
  33         0.12852428
  34        -0.01736847
  35         0.09080452
  36        -0.00000040
  37        -0.03360012
  38         0.01969300
  39        -0.00000113
  40         0.01284006
  41        -0.00062179
  42        -0.00560570
  43        -0.00176630
  44         0.00000073
  45        -0.00000005
  46        -0.10554939
  47         0.23572005
  48         0.19966436
  49         0.01578017
  50         0.11965507
  51         0.00000111
  52         0.02918006
  53         0.07600070
  54         0.00000138
  55         0.00605554
  56         0.01514566
  57        -0.00936255
  58         0.00724461
  59         0.00000064
  60         0.00000037
  61         0.00000038
  62        -0.00000076
  63        -0.00000084
  64         0.00000343
  65         0.08403519
  66         0.00000016
  67        -0.00000013
  68         0.00515273
  69         0.00000001
  70        -0.00000064
  71         0.00000056
  72         0.00000000
  73        -0.00716499
  74        -0.00000002
  75        -0.00000024
  76        -0.14759508
  77        -0.02975955
  78        -0.08328364
  79        -0.01759342
  80         0.08328416
  81         0.01759350
  82         0.14759494
  83         0.02975944
  84        -0.00000042
  85        -0.00000005
  86        -0.00000040
  87        -0.00000003
Sym=     8a  
Ene=     0.0000
Spin= Alpha
Occup=    1.97903
   1        -0.02193969
   2         0.04864785
   3         0.05955728
   4         0.08212972
   5        -0.00232690
   6         0.00000288
   7        -0.00728994
   8        -0.00506010
   9        -0.00000025
  10        -0.00463414
  11         0.00892831
  12        -0.00182381
  13         0.00496421
  14        -0.00000009
  15         0.00000018
  16         0.10177077
  17        -0.22803539
  18        -0.20371364
  19         0.11366116
  20         0.01783163
  21         0.00000390
  22         0.05274505
  23         0.04363488
  24         0.00000188
  25        -0.00793444
  26        -0.01256251
  27         0.00931316
  28        -0.00754436
  29        -0.00000069
  30        -0.00000031
  31         0.10177052
  32        -0.22803476
  33        -0.20371300
  34         0.11365977
  35        -0.01784153
  36         0.00000384
  37         0.05274125
  38        -0.04363963
  39         0.00000171
  40        -0.00793325
  41        -0.01256363
  42         0.00931313
  43         0.00754383
  44        -0.00000067
  45         0.00000022
  46        -0.02194027
  47         0.04864915
  48         0.05955829
  49         0.08213019
  50         0.00232012
  51         0.00000289
  52        -0.00728932
  53         0.00506116
  54        -0.00000024
  55        -0.00463486
  56         0.00892916
  57        -0.00182386
  58        -0.00496278
  59        -0.00000011
  60        -0.00000013
  61        -0.09473687
  62         0.19204862
  63         0.18739377
  64         0.08332589
  65        -0.00000339
  66         0.00000294
  67         0.09984799
  68        -0.00000442
  69         0.00000355
  70         0.01789311
  71         0.00039148
  72        -0.00110990
  73        -0.00000093
  74         0.00000078
  75         0.00000000
  76         0.03450118
  77         0.01443039
  78        -0.13332486
  79        -0.02390020
  80        -0.13332465
  81        -0.02390014
  82         0.03450198
  83         0.01443053
  84         0.09804261
  85         0.00518113
  86         0.09804277
  87         0.00518107
Sym=     9a  
Ene=     0.0000
Spin= Alpha
Occup=    1.97315
   1        -0.07179455
   2         0.16806959
   3         0.16245726
   4         0.01792691
   5        -0.21825972
   6         0.00000059
   7         0.05843262
   8        -0.14342481
   9         0.00000208
  10        -0.00272395
  11         0.01356996
  12        -0.00513768
  13        -0.01476815
  14         0.00000009
  15        -0.00000056
  16         0.02032002
  17        -0.04557947
  18        -0.01938877
  19         0.06157188
  20        -0.01695805
  21         0.00000215
  22         0.03662682
  23         0.01755362
  24         0.00000123
  25        -0.00104240
  26        -0.00251988
  27         0.00192343
  28        -0.00905437
  29        -0.00000013
  30        -0.00000031
  31         0.02032108
  32        -0.04558188
  33        -0.01939110
  34         0.06157500
  35         0.01695106
  36         0.00000223
  37         0.03662668
  38        -0.01755761
  39         0.00000120
  40        -0.00104123
  41        -0.00252122
  42         0.00192352
  43         0.00905443
  44        -0.00000010
  45         0.00000030
  46        -0.07179498
  47         0.16807058
  48         0.16245832
  49         0.01794726
  50         0.21825919
  51         0.00000143
  52         0.05844582
  53         0.14342033
  54         0.00000262
  55        -0.00272175
  56         0.01356783
  57        -0.00513771
  58         0.01476989
  59         0.00000015
  60         0.00000063
  61         0.09115550
  62        -0.18745725
  63        -0.20043451
  64        -0.08853758
  65         0.00000419
  66        -0.00000303
  67        -0.12502947
  68         0.00000553
  69        -0.00000461
  70        -0.02543445
  71         0.01442186
  72        -0.00057339
  73         0.00000205
  74        -0.00000103
  75         0.00000004
  76         0.17428448
  77         0.02854433
  78        -0.04374912
  79        -0.01225424
  80        -0.04375125
  81        -0.01225470
  82         0.17428560
  83         0.02854455
  84        -0.10836350
  85        -0.00681426
  86        -0.10836369
  87        -0.00681434
Sym=    10a  
Ene=     0.0000
Spin= Alpha
Occup=    1.97254
   1         0.04947535
   2        -0.11437162
   3        -0.10484765
   4        -0.08930306
   5         0.08988757
   6        -0.00000311
   7        -0.03127884
   8         0.07939248
   9        -0.00000108
  10         0.00783034
  11        -0.01480951
  12         0.00353300
  13         0.00316918
  14         0.00000015
  15         0.00000012
  16        -0.08934030
  17         0.20679528
  18         0.19324576
  19        -0.14135198
  20        -0.12901548
  21        -0.00000507
  22        -0.11846493
  23        -0.08013074
  24        -0.00000414
  25         0.01431908
  26        -0.00194750
  27        -0.00650156
  28         0.01881386
  29         0.00000085
  30         0.00000066
  31         0.08933999
  32        -0.20679444
  33        -0.19324489
  34         0.14133973
  35        -0.12902818
  36         0.00000463
  37         0.11845750
  38        -0.08014101
  39         0.00000388
  40        -0.01431616
  41         0.00194462
  42         0.00650154
  43         0.01881541
  44        -0.00000079
  45         0.00000064
  46        -0.04947450
  47         0.11436969
  48         0.10484549
  49         0.08931092
  50         0.08987704
  51         0.00000345
  52         0.03128546
  53         0.07938817
  54         0.00000138
  55        -0.00782982
  56         0.01480886
  57        -0.00353294
  58         0.00317135
  59        -0.00000015
  60         0.00000020
  61        -0.00000047
  62         0.00000101
  63         0.00000099
  64         0.00000326
  65         0.06536062
  66         0.00000012
  67         0.00000107
  68         0.00983196
  69         0.00000003
  70        -0.00000023
  71         0.00000027
  72         0.00000000
  73        -0.00446933
  74        -0.00000001
  75        -0.00000016
  76        -0.10532108
  77        -0.02022020
  78         0.17957598
  79         0.03300160
  80        -0.17957538
  81        -0.03300154
  82         0.10531907
  83         0.02021977
  84         0.00000050
  85        -0.00000000
  86         0.00000052
  87         0.00000002
Sym=    11a  
Ene=     0.0000
Spin= Alpha
Occup=    1.96883
   1         0.02362684
   2        -0.04692179
   3         0.03312793
   4         0.10875287
   5        -0.18216805
   6         0.00000350
   7         0.02183320
   8        -0.04569690
   9         0.00000073
  10        -0.00232099
  11        -0.00036825
  12         0.00407437
  13         0.00446022
  14        -0.00000022
  15         0.00000009
  16         0.01330237
  17        -0.01972842
  18         0.02889554
  19        -0.23550106
  20        -0.10927641
  21        -0.00000810
  22        -0.09569589
  23        -0.04474349
  24        -0.00000330
  25        -0.00231041
  26         0.00070683
  27         0.00327906
  28         0.00177766
  29        -0.00000019
  30         0.00000006
  31         0.01330254
  32        -0.01972879
  33         0.02889541
  34        -0.23549166
  35         0.10929758
  36        -0.00000776
  37        -0.09569215
  38         0.04475204
  39        -0.00000316
  40        -0.00231068
  41         0.00070707
  42         0.00327907
  43        -0.00177737
  44        -0.00000021
  45        -0.00000007
  46         0.02362691
  47        -0.04692192
  48         0.03312804
  49         0.10876914
  50         0.18215894
  51         0.00000426
  52         0.02183724
  53         0.04569507
  54         0.00000092
  55        -0.00232167
  56        -0.00036755
  57         0.00407437
  58        -0.00446001
  59        -0.00000025
  60        -0.00000013
  61        -0.01563180
  62         0.02998045
  63         0.08310382
  64         0.22438005
  65        -0.00001031
  66         0.00000789
  67         0.13477288
  68        -0.00000612
  69         0.00000475
  70         0.00667933
  71        -0.00415549
  72         0.00652372
  73        -0.00000053
  74         0.00000002
  75        -0.00000003
  76         0.08043736
  77         0.03161534
  78         0.11271617
  79         0.02836423
  80         0.11271630
  81         0.02836429
  82         0.08043760
  83         0.03161546
  84         0.09865649
  85         0.01120820
  86         0.09865668
  87         0.01120810
Sym=    12a  
Ene=     0.0000
Spin= Alpha
Occup=    1.96011
   1        -0.06172590
   2         0.13511627
   3         0.06939137
   4        -0.15963399
   5         0.26764618
   6        -0.00000510
   7        -0.07613215
   8         0.13941283
   9        -0.00000252
  10         0.01446933
  11        -0.01115634
  12        -0.00505145
  13         0.00106913
  14         0.00000074
  15         0.00000010
  16        -0.03943700
  17         0.08774585
  18         0.04259024
  19         0.24899524
  20        -0.00812850
  21         0.00000826
  22         0.10766929
  23         0.02737220
  24         0.00000370
  25         0.01407913
  26        -0.01258693
  27        -0.00308266
  28        -0.01565941
  29         0.00000061
  30        -0.00000054
  31         0.03943659
  32        -0.08774497
  33        -0.04259030
  34        -0.24899443
  35        -0.00810844
  36        -0.00000842
  37        -0.10766615
  38         0.02738116
  39        -0.00000362
  40        -0.01408166
  41         0.01258951
  42         0.00308261
  43        -0.01565665
  44        -0.00000069
  45        -0.00000050
  46         0.06172604
  47        -0.13511660
  48        -0.06939095
  49         0.15965665
  50         0.26763273