[Molden Format]
[N_Atoms]
                    11
[Atoms] (AU)
C1          1      6           0.52028567     -2.25128341      0.00005019
C2          2      6          -2.05133220     -1.36541284     -0.00003719
C3          3      6          -2.05120966      1.36560225     -0.00003133
C4          4      6           0.52048504      2.25124272      0.00005853
C5          5      6           2.08386975     -0.00008940      0.00010926
H6          6      1           1.15723470     -4.20998056      0.00006563
H7          7      1          -3.74444304     -2.55001513     -0.00009721
H8          8      1          -3.74421548      2.55035344     -0.00008617
H9          9      1           1.15760843      4.20988268      0.00008194
H10        10      1           3.95750092     -0.00017834      1.21583706
H11        11      1           3.95758790     -0.00017330     -1.21548291
[Charge] (Mulliken)
 -0.319975352529283     
  0.122452805232093     
  0.122455893266672     
 -0.319974264858695     
 -0.421695713371633     
  0.415618684340658     
  0.419612736658353     
  0.419612650668535     
  0.415618661459393     
  0.573137018093205     
  0.573136881040001     
[GTO] (AU)
   1
   s   6
  3.047524880E+03  1.834737132E-03
  4.573695180E+02  1.403732281E-02
  1.039486850E+02  6.884262227E-02
  2.921015530E+01  2.321844432E-01
  9.286662960E+00  4.679413484E-01
  3.163926960E+00  3.623119853E-01
   s   3
  7.868272350E+00 -1.193324198E-01
  1.881288540E+00 -1.608541517E-01
  5.442492580E-01  1.143456438E+00
   s   1
  1.687144782E-01  1.000000000E+00
   p   3
  7.868272350E+00  6.899906659E-02
  1.881288540E+00  3.164239610E-01
  5.442492580E-01  7.443082909E-01
   p   1
  1.687144782E-01  1.000000000E+00
   d   1
  8.000000000E-01  1.000000000E+00
 
   2
   s   6
  3.047524880E+03  1.834737132E-03
  4.573695180E+02  1.403732281E-02
  1.039486850E+02  6.884262227E-02
  2.921015530E+01  2.321844432E-01
  9.286662960E+00  4.679413484E-01
  3.163926960E+00  3.623119853E-01
   s   3
  7.868272350E+00 -1.193324198E-01
  1.881288540E+00 -1.608541517E-01
  5.442492580E-01  1.143456438E+00
   s   1
  1.687144782E-01  1.000000000E+00
   p   3
  7.868272350E+00  6.899906659E-02
  1.881288540E+00  3.164239610E-01
  5.442492580E-01  7.443082909E-01
   p   1
  1.687144782E-01  1.000000000E+00
   d   1
  8.000000000E-01  1.000000000E+00
 
   3
   s   6
  3.047524880E+03  1.834737132E-03
  4.573695180E+02  1.403732281E-02
  1.039486850E+02  6.884262227E-02
  2.921015530E+01  2.321844432E-01
  9.286662960E+00  4.679413484E-01
  3.163926960E+00  3.623119853E-01
   s   3
  7.868272350E+00 -1.193324198E-01
  1.881288540E+00 -1.608541517E-01
  5.442492580E-01  1.143456438E+00
   s   1
  1.687144782E-01  1.000000000E+00
   p   3
  7.868272350E+00  6.899906659E-02
  1.881288540E+00  3.164239610E-01
  5.442492580E-01  7.443082909E-01
   p   1
  1.687144782E-01  1.000000000E+00
   d   1
  8.000000000E-01  1.000000000E+00
 
   4
   s   6
  3.047524880E+03  1.834737132E-03
  4.573695180E+02  1.403732281E-02
  1.039486850E+02  6.884262227E-02
  2.921015530E+01  2.321844432E-01
  9.286662960E+00  4.679413484E-01
  3.163926960E+00  3.623119853E-01
   s   3
  7.868272350E+00 -1.193324198E-01
  1.881288540E+00 -1.608541517E-01
  5.442492580E-01  1.143456438E+00
   s   1
  1.687144782E-01  1.000000000E+00
   p   3
  7.868272350E+00  6.899906659E-02
  1.881288540E+00  3.164239610E-01
  5.442492580E-01  7.443082909E-01
   p   1
  1.687144782E-01  1.000000000E+00
   d   1
  8.000000000E-01  1.000000000E+00
 
   5
   s   6
  3.047524880E+03  1.834737132E-03
  4.573695180E+02  1.403732281E-02
  1.039486850E+02  6.884262227E-02
  2.921015530E+01  2.321844432E-01
  9.286662960E+00  4.679413484E-01
  3.163926960E+00  3.623119853E-01
   s   3
  7.868272350E+00 -1.193324198E-01
  1.881288540E+00 -1.608541517E-01
  5.442492580E-01  1.143456438E+00
   s   1
  1.687144782E-01  1.000000000E+00
   p   3
  7.868272350E+00  6.899906659E-02
  1.881288540E+00  3.164239610E-01
  5.442492580E-01  7.443082909E-01
   p   1
  1.687144782E-01  1.000000000E+00
   d   1
  8.000000000E-01  1.000000000E+00
 
   6
   s   3
  1.873113696E+01  3.349460434E-02
  2.825394365E+00  2.347269535E-01
  6.401216923E-01  8.137573261E-01
   s   1
  1.612777588E-01  1.000000000E+00
 
   7
   s   3
  1.873113696E+01  3.349460434E-02
  2.825394365E+00  2.347269535E-01
  6.401216923E-01  8.137573261E-01
   s   1
  1.612777588E-01  1.000000000E+00
 
   8
   s   3
  1.873113696E+01  3.349460434E-02
  2.825394365E+00  2.347269535E-01
  6.401216923E-01  8.137573261E-01
   s   1
  1.612777588E-01  1.000000000E+00
 
   9
   s   3
  1.873113696E+01  3.349460434E-02
  2.825394365E+00  2.347269535E-01
  6.401216923E-01  8.137573261E-01
   s   1
  1.612777588E-01  1.000000000E+00
 
  10
   s   3
  1.873113696E+01  3.349460434E-02
  2.825394365E+00  2.347269535E-01
  6.401216923E-01  8.137573261E-01
   s   1
  1.612777588E-01  1.000000000E+00
 
  11
   s   3
  1.873113696E+01  3.349460434E-02
  2.825394365E+00  2.347269535E-01
  6.401216923E-01  8.137573261E-01
   s   1
  1.612777588E-01  1.000000000E+00
 
[MO]
Sym=     1a  
Ene=   -11.7560
Spin= Alpha
Occup=    1.00000
   1         0.10394806
   2         0.00268408
   3         0.00165029
   4         0.00008233
   5         0.00000213
   6         0.00000000
   7        -0.00087719
   8         0.00066950
   9        -0.00000003
  10        -0.00053198
  11        -0.00030083
  12        -0.00034990
  13         0.00005950
  14        -0.00000001
  15         0.00000000
  16         0.69623068
  17         0.01890340
  18        -0.00553899
  19         0.00047236
  20         0.00033393
  21         0.00000002
  22        -0.00111677
  23        -0.00004812
  24        -0.00000004
  25        -0.00122017
  26        -0.00150074
  27        -0.00173477
  28         0.00005606
  29         0.00000002
  30         0.00000000
  31         0.69615434
  32         0.01890133
  33        -0.00553768
  34         0.00047226
  35        -0.00033392
  36         0.00000002
  37        -0.00111654
  38         0.00004793
  39        -0.00000004
  40        -0.00122008
  41        -0.00150066
  42        -0.00173460
  43        -0.00005608
  44         0.00000002
  45        -0.00000000
  46         0.10393291
  47         0.00268366
  48         0.00165006
  49         0.00008233
  50        -0.00000213
  51         0.00000000
  52        -0.00087714
  53        -0.00066935
  54        -0.00000003
  55        -0.00053191
  56        -0.00030077
  57        -0.00034986
  58        -0.00005946
  59        -0.00000001
  60        -0.00000000
  61         0.00951267
  62         0.00008500
  63        -0.00020060
  64         0.00004569
  65         0.00000000
  66         0.00000000
  67        -0.00016195
  68         0.00000001
  69        -0.00000001
  70         0.00005968
  71        -0.00008628
  72        -0.00005515
  73        -0.00000001
  74         0.00000000
  75        -0.00000000
  76        -0.00004354
  77         0.00030965
  78        -0.00017868
  79         0.00074324
  80        -0.00017867
  81         0.00074318
  82        -0.00004354
  83         0.00030963
  84        -0.00000023
  85         0.00011648
  86        -0.00000023
  87         0.00011649
Sym=     1a  
Ene=   -11.7560
Spin= Beta
Occup=    1.00000
   1         0.10394806
   2         0.00268408
   3         0.00165029
   4         0.00008233
   5         0.00000213
   6         0.00000000
   7        -0.00087719
   8         0.00066950
   9        -0.00000003
  10        -0.00053198
  11        -0.00030083
  12        -0.00034990
  13         0.00005950
  14        -0.00000001
  15         0.00000000
  16         0.69623068
  17         0.01890340
  18        -0.00553899
  19         0.00047236
  20         0.00033393
  21         0.00000002
  22        -0.00111677
  23        -0.00004812
  24        -0.00000004
  25        -0.00122017
  26        -0.00150074
  27        -0.00173477
  28         0.00005606
  29         0.00000002
  30         0.00000000
  31         0.69615434
  32         0.01890133
  33        -0.00553768
  34         0.00047226
  35        -0.00033392
  36         0.00000002
  37        -0.00111654
  38         0.00004793
  39        -0.00000004
  40        -0.00122008
  41        -0.00150066
  42        -0.00173460
  43        -0.00005608
  44         0.00000002
  45        -0.00000000
  46         0.10393291
  47         0.00268366
  48         0.00165006
  49         0.00008233
  50        -0.00000213
  51         0.00000000
  52        -0.00087714
  53        -0.00066935
  54        -0.00000003
  55        -0.00053191
  56        -0.00030077
  57        -0.00034986
  58        -0.00005946
  59        -0.00000001
  60        -0.00000000
  61         0.00951267
  62         0.00008500
  63        -0.00020060
  64         0.00004569
  65         0.00000000
  66         0.00000000
  67        -0.00016195
  68         0.00000001
  69        -0.00000001
  70         0.00005968
  71        -0.00008628
  72        -0.00005515
  73        -0.00000001
  74         0.00000000
  75        -0.00000000
  76        -0.00004354
  77         0.00030965
  78        -0.00017868
  79         0.00074324
  80        -0.00017867
  81         0.00074318
  82        -0.00004354
  83         0.00030963
  84        -0.00000023
  85         0.00011648
  86        -0.00000023
  87         0.00011649
Sym=     2a  
Ene=   -11.7550
Spin= Alpha
Occup=    1.00000
   1        -0.14460504
   2        -0.00403958
   3        -0.00202561
   4         0.00000454
   5        -0.00005469
   6        -0.00000000
   7         0.00102097
   8        -0.00061148
   9         0.00000003
  10         0.00067038
  11         0.00050309
  12         0.00040880
  13        -0.00012808
  14         0.00000001
  15        -0.00000000
  16        -0.68917555
  17        -0.01870906
  18         0.01183023
  19        -0.00056177
  20        -0.00052256
  21        -0.00000002
  22         0.00206313
  23         0.00259399
  24         0.00000008
  25         0.00086958
  26         0.00059601
  27         0.00152069
  28        -0.00007095
  29        -0.00000003
  30        -0.00000000
  31         0.68925288
  32         0.01871117
  33        -0.01183086
  34         0.00056178
  35        -0.00052265
  36         0.00000002
  37        -0.00206303
  38         0.00259418
  39        -0.00000007
  40        -0.00086972
  41        -0.00059616
  42        -0.00152088
  43        -0.00007093
  44         0.00000003
  45        -0.00000000
  46         0.14461388
  47         0.00403980
  48         0.00202584
  49        -0.00000454
  50        -0.00005469
  51        -0.00000000
  52        -0.00102113
  53        -0.00061147
  54        -0.00000004
  55        -0.00067046
  56        -0.00050310
  57        -0.00040884
  58        -0.00012807
  59        -0.00000001
  60        -0.00000000
  61         0.00000045
  62         0.00000000
  63        -0.00000002
  64        -0.00000000
  65        -0.00009460
  66        -0.00000000
  67        -0.00000000
  68         0.00005908
  69         0.00000000
  70         0.00000001
  71        -0.00000000
  72        -0.00000000
  73         0.00001404
  74        -0.00000000
  75         0.00000000
  76         0.00004653
  77        -0.00017701
  78         0.00012813
  79        -0.00052336
  80        -0.00012815
  81         0.00052344
  82        -0.00004654
  83         0.00017704
  84         0.00000000
  85         0.00000001
  86         0.00000000
  87         0.00000001
Sym=     2a  
Ene=   -11.7550
Spin= Beta
Occup=    1.00000
   1        -0.14460504
   2        -0.00403958
   3        -0.00202561
   4         0.00000454
   5        -0.00005469
   6        -0.00000000
   7         0.00102097
   8        -0.00061148
   9         0.00000003
  10         0.00067038
  11         0.00050309
  12         0.00040880
  13        -0.00012808
  14         0.00000001
  15        -0.00000000
  16        -0.68917555
  17        -0.01870906
  18         0.01183023
  19        -0.00056177
  20        -0.00052256
  21        -0.00000002
  22         0.00206313
  23         0.00259399
  24         0.00000008
  25         0.00086958
  26         0.00059601
  27         0.00152069
  28        -0.00007095
  29        -0.00000003
  30        -0.00000000
  31         0.68925288
  32         0.01871117
  33        -0.01183086
  34         0.00056178
  35        -0.00052265
  36         0.00000002
  37        -0.00206303
  38         0.00259418
  39        -0.00000007
  40        -0.00086972
  41        -0.00059616
  42        -0.00152088
  43        -0.00007093
  44         0.00000003
  45        -0.00000000
  46         0.14461388
  47         0.00403980
  48         0.00202584
  49        -0.00000454
  50        -0.00005469
  51        -0.00000000
  52        -0.00102113
  53        -0.00061147
  54        -0.00000004
  55        -0.00067046
  56        -0.00050310
  57        -0.00040884
  58        -0.00012807
  59        -0.00000001
  60        -0.00000000
  61         0.00000045
  62         0.00000000
  63        -0.00000002
  64        -0.00000000
  65        -0.00009460
  66        -0.00000000
  67        -0.00000000
  68         0.00005908
  69         0.00000000
  70         0.00000001
  71        -0.00000000
  72        -0.00000000
  73         0.00001404
  74        -0.00000000
  75         0.00000000
  76         0.00004653
  77        -0.00017701
  78         0.00012813
  79        -0.00052336
  80        -0.00012815
  81         0.00052344
  82        -0.00004654
  83         0.00017704
  84         0.00000000
  85         0.00000001
  86         0.00000000
  87         0.00000001
Sym=     3a  
Ene=   -11.7530
Spin= Alpha
Occup=    1.00000
   1        -0.69324177
   2        -0.01872404
   3         0.01000276
   4         0.00022751
   5        -0.00063073
   6         0.00000001
   7        -0.00089816
   8         0.00249396
   9        -0.00000003
  10         0.00098163
  11         0.00086495
  12         0.00158138
  13         0.00009428
  14        -0.00000002
  15         0.00000000
  16         0.10449950
  17         0.00295317
  18        -0.00394178
  19         0.00016958
  20         0.00011934
  21         0.00000001
  22        -0.00165323
  23         0.00005378
  24        -0.00000006
  25         0.00022018
  26        -0.00007344
  27        -0.00015231
  28        -0.00010347
  29         0.00000001
  30        -0.00000000
  31         0.10426724
  32         0.00294702
  33        -0.00393130
  34         0.00016918
  35        -0.00011920
  36         0.00000001
  37        -0.00165008
  38        -0.00005491
  39        -0.00000006
  40         0.00021971
  41        -0.00007369
  42        -0.00015194
  43         0.00010341
  44         0.00000001
  45         0.00000000
  46        -0.69215046
  47        -0.01869438
  48         0.00998743
  49         0.00022734
  50         0.00062961
  51         0.00000001
  52        -0.00089683
  53        -0.00249029
  54        -0.00000003
  55         0.00098011
  56         0.00086350
  57         0.00157893
  58        -0.00009415
  59        -0.00000002
  60        -0.00000000
  61        -0.10099514
  62        -0.00290065
  63        -0.00568591
  64        -0.00025442
  65        -0.00000005
  66        -0.00000001
  67         0.00246723
  68         0.00000122
  69         0.00000009
  70         0.00076091
  71         0.00089557
  72         0.00038554
  73         0.00000028
  74         0.00000001
  75         0.00000000
  76         0.00018341
  77        -0.00058385
  78        -0.00000257
  79        -0.00006730
  80        -0.00000255
  81        -0.00006738
  82         0.00018316
  83        -0.00058296
  84         0.00015250
  85        -0.00040003
  86         0.00015250
  87        -0.00040003
Sym=     3a  
Ene=   -11.7530
Spin= Beta
Occup=    1.00000
   1        -0.69324177
   2        -0.01872404
   3         0.01000276
   4         0.00022751
   5        -0.00063073
   6         0.00000001
   7        -0.00089816
   8         0.00249396
   9        -0.00000003
  10         0.00098163
  11         0.00086495
  12         0.00158138
  13         0.00009428
  14        -0.00000002
  15         0.00000000
  16         0.10449950
  17         0.00295317
  18        -0.00394178
  19         0.00016958
  20         0.00011934
  21         0.00000001
  22        -0.00165323
  23         0.00005378
  24        -0.00000006
  25         0.00022018
  26        -0.00007344
  27        -0.00015231
  28        -0.00010347
  29         0.00000001
  30        -0.00000000
  31         0.10426724
  32         0.00294702
  33        -0.00393130
  34         0.00016918
  35        -0.00011920
  36         0.00000001
  37        -0.00165008
  38        -0.00005491
  39        -0.00000006
  40         0.00021971
  41        -0.00007369
  42        -0.00015194
  43         0.00010341
  44         0.00000001
  45         0.00000000
  46        -0.69215046
  47        -0.01869438
  48         0.00998743
  49         0.00022734
  50         0.00062961
  51         0.00000001
  52        -0.00089683
  53        -0.00249029
  54        -0.00000003
  55         0.00098011
  56         0.00086350
  57         0.00157893
  58        -0.00009415
  59        -0.00000002
  60        -0.00000000
  61        -0.10099514
  62        -0.00290065
  63        -0.00568591
  64        -0.00025442
  65        -0.00000005
  66        -0.00000001
  67         0.00246723
  68         0.00000122
  69         0.00000009
  70         0.00076091
  71         0.00089557
  72         0.00038554
  73         0.00000028
  74         0.00000001
  75         0.00000000
  76         0.00018341
  77        -0.00058385
  78        -0.00000257
  79        -0.00006730
  80        -0.00000255
  81        -0.00006738
  82         0.00018316
  83        -0.00058296
  84         0.00015250
  85        -0.00040003
  86         0.00015250
  87        -0.00040003
Sym=     4a  
Ene=   -11.7520
Spin= Alpha
Occup=    1.00000
   1         0.68858510
   2         0.01871993
   3        -0.00967066
   4        -0.00014739
   5         0.00069293
   6        -0.00000000
   7         0.00097762
   8        -0.00226620
   9         0.00000003
  10        -0.00095217
  11        -0.00092777
  12        -0.00154357
  13        -0.00009301
  14         0.00000002
  15        -0.00000000
  16        -0.14486379
  17        -0.00383561
  18         0.00658901
  19        -0.00024668
  20        -0.00009335
  21        -0.00000001
  22         0.00199205
  23         0.00080361
  24         0.00000007
  25        -0.00031199
  26        -0.00015308
  27         0.00022968
  28         0.00001769
  29        -0.00000002
  30        -0.00000000
  31         0.14503000
  32         0.00384030
  33        -0.00659526
  34         0.00024694
  35        -0.00009356
  36         0.00000001
  37        -0.00199460
  38         0.00080370
  39        -0.00000007
  40         0.00031234
  41         0.00015296
  42        -0.00022993
  43         0.00001783
  44         0.00000002
  45         0.00000000
  46        -0.68968232
  47        -0.01874957
  48         0.00968649
  49         0.00014781
  50         0.00069391
  51         0.00000001
  52        -0.00097925
  53        -0.00227006
  54        -0.00000004
  55         0.00095371
  56         0.00092916
  57         0.00154608
  58        -0.00009316
  59        -0.00000002
  60        -0.00000000
  61        -0.00008104
  62        -0.00000233
  63        -0.00000449
  64        -0.00000020
  65         0.00007916
  66         0.00000000
  67         0.00000188
  68        -0.00167637
  69        -0.00000000
  70         0.00000058
  71         0.00000074
  72         0.00000031
  73        -0.00034297
  74        -0.00000000
  75        -0.00000001
  76        -0.00015988
  77         0.00056515
  78         0.00001337
  79        -0.00004840
  80        -0.00001338
  81         0.00004829
  82         0.00016017
  83        -0.00056608
  84         0.00000012
  85        -0.00000032
  86         0.00000012
  87        -0.00000032
Sym=     4a  
Ene=   -11.7520
Spin= Beta
Occup=    1.00000
   1         0.68858510
   2         0.01871993
   3        -0.00967066
   4        -0.00014739
   5         0.00069293
   6        -0.00000000
   7         0.00097762
   8        -0.00226620
   9         0.00000003
  10        -0.00095217
  11        -0.00092777
  12        -0.00154357
  13        -0.00009301
  14         0.00000002
  15        -0.00000000
  16        -0.14486379
  17        -0.00383561
  18         0.00658901
  19        -0.00024668
  20        -0.00009335
  21        -0.00000001
  22         0.00199205
  23         0.00080361
  24         0.00000007
  25        -0.00031199
  26        -0.00015308
  27         0.00022968
  28         0.00001769
  29        -0.00000002
  30        -0.00000000
  31         0.14503000
  32         0.00384030
  33        -0.00659526
  34         0.00024694
  35        -0.00009356
  36         0.00000001
  37        -0.00199460
  38         0.00080370
  39        -0.00000007
  40         0.00031234
  41         0.00015296
  42        -0.00022993
  43         0.00001783
  44         0.00000002
  45         0.00000000
  46        -0.68968232
  47        -0.01874957
  48         0.00968649
  49         0.00014781
  50         0.00069391
  51         0.00000001
  52        -0.00097925
  53        -0.00227006
  54        -0.00000004
  55         0.00095371
  56         0.00092916
  57         0.00154608
  58        -0.00009316
  59        -0.00000002
  60        -0.00000000
  61        -0.00008104
  62        -0.00000233
  63        -0.00000449
  64        -0.00000020
  65         0.00007916
  66         0.00000000
  67         0.00000188
  68        -0.00167637
  69        -0.00000000
  70         0.00000058
  71         0.00000074
  72         0.00000031
  73        -0.00034297
  74        -0.00000000
  75        -0.00000001
  76        -0.00015988
  77         0.00056515
  78         0.00001337
  79        -0.00004840
  80        -0.00001338
  81         0.00004829
  82         0.00016017
  83        -0.00056608
  84         0.00000012
  85        -0.00000032
  86         0.00000012
  87        -0.00000032
Sym=     5a  
Ene=   -11.7460
Spin= Alpha
Occup=    1.00000
   1        -0.07203526
   2        -0.00190932
   3         0.00419954
   4        -0.00001982
   5        -0.00014513
   6        -0.00000000
   7         0.00118039
   8         0.00104327
   9         0.00000004
  10        -0.00020032
  11        -0.00033841
  12         0.00004926
  13        -0.00011353
  14        -0.00000001
  15        -0.00000000
  16         0.00395227
  17        -0.00001941
  18        -0.00011679
  19         0.00002867
  20         0.00003258
  21         0.00000000
  22        -0.00006835
  23        -0.00012536
  24        -0.00000000
  25         0.00014958
  26         0.00002670
  27        -0.00000399
  28         0.00000154
  29         0.00000001
  30         0.00000000
  31         0.00395242
  32        -0.00001941
  33        -0.00011679
  34         0.00002867
  35        -0.00003259
  36         0.00000000
  37        -0.00006834
  38         0.00012536
  39        -0.00000000
  40         0.00014958
  41         0.00002670
  42        -0.00000399
  43        -0.00000155
  44         0.00000001
  45        -0.00000000
  46        -0.07203674
  47        -0.00190936
  48         0.00419954
  49        -0.00001980
  50         0.00014513
  51        -0.00000000
  52         0.00118029
  53        -0.00104337
  54         0.00000004
  55        -0.00020030
  56        -0.00033843
  57         0.00004926
  58         0.00011351
  59        -0.00000001
  60         0.00000000
  61         0.99050871
  62         0.02796094
  63        -0.01439317
  64         0.00039344
  65        -0.00000002
  66         0.00000002
  67        -0.00047167
  68         0.00000003
  69        -0.00000002
  70        -0.00168039
  71        -0.00164124
  72        -0.00211337
  73         0.00000000
  74         0.00000002
  75         0.00000000
  76        -0.00009349
  77        -0.00036437
  78        -0.00002869
  79         0.00001870
  80        -0.00002869
  81         0.00001871
  82        -0.00009349
  83        -0.00036437
  84         0.00018155
  85         0.00197687
  86         0.00018155
  87         0.00197687
Sym=     5a  
Ene=   -11.7460
Spin= Beta
Occup=    1.00000
   1        -0.07203526
   2        -0.00190932
   3         0.00419954
   4        -0.00001982
   5        -0.00014513
   6        -0.00000000
   7         0.00118039
   8         0.00104327
   9         0.00000004
  10        -0.00020032
  11        -0.00033841
  12         0.00004926
  13        -0.00011353
  14        -0.00000001
  15        -0.00000000
  16         0.00395227
  17        -0.00001941
  18        -0.00011679
  19         0.00002867
  20         0.00003258
  21         0.00000000
  22        -0.00006835
  23        -0.00012536
  24        -0.00000000
  25         0.00014958
  26         0.00002670
  27        -0.00000399
  28         0.00000154
  29         0.00000001
  30         0.00000000
  31         0.00395242
  32        -0.00001941
  33        -0.00011679
  34         0.00002867
  35        -0.00003259
  36         0.00000000
  37        -0.00006834
  38         0.00012536
  39        -0.00000000
  40         0.00014958
  41         0.00002670
  42        -0.00000399
  43        -0.00000155
  44         0.00000001
  45        -0.00000000
  46        -0.07203674
  47        -0.00190936
  48         0.00419954
  49        -0.00001980
  50         0.00014513
  51        -0.00000000
  52         0.00118029
  53        -0.00104337
  54         0.00000004
  55        -0.00020030
  56        -0.00033843
  57         0.00004926
  58         0.00011351
  59        -0.00000001
  60         0.00000000
  61         0.99050871
  62         0.02796094
  63        -0.01439317
  64         0.00039344
  65        -0.00000002
  66         0.00000002
  67        -0.00047167
  68         0.00000003
  69        -0.00000002
  70        -0.00168039
  71        -0.00164124
  72        -0.00211337
  73         0.00000000
  74         0.00000002
  75         0.00000000
  76        -0.00009349
  77        -0.00036437
  78        -0.00002869
  79         0.00001870
  80        -0.00002869
  81         0.00001871
  82        -0.00009349
  83        -0.00036437
  84         0.00018155
  85         0.00197687
  86         0.00018155
  87         0.00197687
Sym=     6a  
Ene=    -1.6445
Spin= Alpha
Occup=    1.00000
   1        -0.09513116
   2         0.18934170
   3         0.10735516
   4        -0.02323008
   5         0.08432104
   6        -0.00000064
   7        -0.00832980
   8         0.01808468
   9        -0.00000026
  10         0.00738922
  11         0.01148113
  12        -0.01008924
  13        -0.00130656
  14         0.00000070
  15         0.00000001
  16        -0.09386724
  17         0.18695323
  18         0.10213534
  19         0.07062796
  20         0.05050834
  21         0.00000255
  22         0.01408601
  23         0.01165913
  24         0.00000051
  25         0.01020081
  26         0.00880585
  27        -0.01009343
  28         0.00234122
  29         0.00000081
  30         0.00000013
  31        -0.09386741
  32         0.18695359
  33         0.10213538
  34         0.07062366
  35        -0.05051450
  36         0.00000232
  37         0.01408489
  38        -0.01166031
  39         0.00000046
  40         0.01020048
  41         0.00880618
  42        -0.01009344
  43        -0.00234135
  44         0.00000080
  45        -0.00000003
  46        -0.09513136
  47         0.18934209
  48         0.10735551
  49        -0.02323780
  50        -0.08431905
  51        -0.00000094
  52        -0.00833141
  53        -0.01808399
  54        -0.00000032
  55         0.00738944
  56         0.01148091
  57        -0.01008926
  58         0.00130700
  59         0.00000070
  60         0.00000008
  61        -0.10788766
  62         0.20516569
  63         0.15040550
  64        -0.06889579
  65         0.00000307
  66        -0.00000238
  67         0.00773132
  68        -0.00000045
  69         0.00000032
  70         0.01403247
  71         0.00712420
  72        -0.00657570
  73        -0.00000039
  74         0.00000084
  75         0.00000003
  76         0.02891409
  77         0.00343933
  78         0.02776843
  79         0.00301062
  80         0.02776850
  81         0.00301058
  82         0.02891415
  83         0.00343932
  84         0.03930125
  85        -0.00518638
  86         0.03930124
  87        -0.00518637
Sym=     6a  
Ene=    -1.6445
Spin= Beta
Occup=    1.00000
   1        -0.09513116
   2         0.18934170
   3         0.10735516
   4        -0.02323008
   5         0.08432104
   6        -0.00000064
   7        -0.00832980
   8         0.01808468
   9        -0.00000026
  10         0.00738922
  11         0.01148113
  12        -0.01008924
  13        -0.00130656
  14         0.00000070
  15         0.00000001
  16        -0.09386724
  17         0.18695323
  18         0.10213534
  19         0.07062796
  20         0.05050834
  21         0.00000255
  22         0.01408601
  23         0.01165913
  24         0.00000051
  25         0.01020081
  26         0.00880585
  27        -0.01009343
  28         0.00234122
  29         0.00000081
  30         0.00000013
  31        -0.09386741
  32         0.18695359
  33         0.10213538
  34         0.07062366
  35        -0.05051450
  36         0.00000232
  37         0.01408489
  38        -0.01166031
  39         0.00000046
  40         0.01020048
  41         0.00880618
  42        -0.01009344
  43        -0.00234135
  44         0.00000080
  45        -0.00000003
  46        -0.09513136
  47         0.18934209
  48         0.10735551
  49        -0.02323780
  50        -0.08431905