   This run of MOLCAS is using the pymolcas driver

                             OPE
                             OPE          NMOL  CASOP  ENMOLC A   SO
                 OPE        NMOLC        AS  OP EN  MO LC     AS  OP
                OPENM       OL CA        SO  PE NM  OL CA     SOP EN
                OP EN      MO   LC       AS  OP ENMOL  CASO   PENMOL
                OP  EN     MO   LC       AS  OP EN     MO     LC ASO
               OP   E  NMOL  C  AS       OP  EN MO     LC     AS  OP
               OP  E   NMO   LC AS        OPEN  MO     LCASOP EN   M
               O  PEN   MO  LCA  SO
            OPE   NMO   L   CAS    OP
        OPENMOL  CASOP     ENMOL   CASOPE
     OPENMOLCA   SOPENMOLCASOPEN   MOLCASOPE
    OPENMOLCAS   OP           EN   MOL    CAS
    OPENMOLCAS       OP  ENM        O     LCA
    OPENMOLCAS    OPEN  MOLCASO     P  E  NMO
    OPENMOLCAS     OP               E  N  MOL
    OPENMOLCA   SO           PENM   O  L  CAS    OPEN    MO    LCAS
    OPENMOLCA   SOP           ENM   O  L  CAS   OP  EN  MOLC  AS   O
    OPENMOLCA   SOPE           NM      O  LCA   S      OP  EN MO
    OPENMOLC                AS         O  PEN   M      OL  CA  SOPE
    OPENMO        LCASOPE  NMOL        C  ASO   P      ENMOLC     AS
    OPE     NMO      LCA  SO     P     E   NM   OL  CA SO  PE N   MO
          OPENMOLCA            SOPE   NMO        LCAS  O    P  ENMO
     OPENMOLCASOPENMOLCASOPENMOLCASOPENMOLCA
        OPENMOLCASOPENMOLCASOPENMOLCASOPE
            OPENMOLCASOPENMOLCASOPENM
               OPENMOLCASOPENMOLCA        version: 26.02
                   OPENMOLCASO
                       OPE                tag: 684-gcd9c692f8

 OpenMolcas is free software; you can redistribute it and/or modify it
 under the terms of the GNU Lesser General Public License version 2.1.
 OpenMolcas is distributed in the hope that it will be useful, but it
 is provided "as is" and without any express or implied warranties.
 For more details see the full text of the license in the file
 LICENSE or in <http://www.gnu.org/licenses/>.

                 Copyright (C) The OpenMolcas Authors
           For the author list and the recommended citation,
                   consult the file CONTRIBUTORS.md

           *************************************************
           * pymolcas version py2.32                       *
           *   build 5fe1e42a8a423461f97be6f8128d9c45      *
           *   (after the EMIL interpreter by V. Veryazov) *
           *************************************************

configuration info
------------------
Host name: cpn-d01-33.core.ccr.buffalo.edu (Linux)
C Compiler ID: Intel
C flags: -std=gnu99 -gcc-sys
Fortran Compiler ID: Intel
Fortran flags: -fpp -i8 -heap-arrays
Definitions: _MOLCAS_;_I8_;_LINUX_;_MOLCAS_MPP_;_SCALAPACK_;_GA_
Parallel: ON (GA=ON)


   -------------------------------------------------------------------------------------------------------------------------------------------------------------------------
  |
  |           Project: c5h6_project
  |    Submitted from: /vscratch/grp-cyberwksp21/sbakenhaster/wed_7_8/openmolcas_pyspawn/Tutorials_OpenMolcas/03_S1_Optimization_CASPT2/c5h6_project
  |      Scratch area: /vscratch/grp-cyberwksp21/sbakenhaster/wed_7_8/openmolcas_pyspawn/Tutorials_OpenMolcas/03_S1_Optimization_CASPT2/c5h6_project/cp_outputs/c5h6_project
  |   Save outputs to: /vscratch/grp-cyberwksp21/sbakenhaster/wed_7_8/openmolcas_pyspawn/Tutorials_OpenMolcas/03_S1_Optimization_CASPT2/c5h6_project
  |            Molcas: /projects/academic/cyberwksp21/SOFTWARE_2026/OpenMolcas
  |
  | Scratch area is NOT empty
  |
  |    MOLCAS_DRIVER = /projects/academic/cyberwksp21/SOFTWARE_2026/OpenMolcas/pymolcas
  |   MOLCAS_MAXITER = 900
  |    MOLCAS_MOLDEN = YES
  |    MOLCAS_NNODES = 1
  |  MOLCAS_NODELIST = cpn-c02-06
  |    MOLCAS_NPROCS = 1
  |     MOLCAS_PRINT = NORMAL
  |    MOLCAS_SOURCE = /projects/academic/cyberwksp21/SOFTWARE_2026/OpenMolcas
  | MOLCAS_STRUCTURE = 0
  |      MOLCAS_TRAP = YES
  |
   -------------------------------------------------------------------------------------------------------------------------------------------------------------------------

++ ---------   Input file   ---------

&GATEWAY
  Coord
  11
  cyclopentadiene
  C     0.2767884268688330  -1.1771412664448577   0.0000168171183982
  C    -0.9969175324701290  -0.7349125994393202  -0.0000149150122887
  C    -0.9968519140171619   0.7350045181245540  -0.0000118258973415
  C     0.2768932824261274   1.1771189590147699   0.0000214599634556
  C     1.2093533408267287  -0.0000526419359785   0.0000540828160369
  H     0.6047252991192712  -2.2144894831909117   0.0000223136292304
  H    -1.8924429356187660  -1.3543051784476192  -0.0000363730424926
  H    -1.8923226739866394   1.3544761167013357  -0.0000308869579216
  H     0.6049240978711818   2.2144372896193976   0.0000310687758373
  H     1.8694369278791156  -0.0000833451043249   0.8829718124912068
  H     1.8695499732047840  -0.0000798268697257  -0.8827759987801829
  Basis = 6-31G*
  Group = NoSym
  RICD

>>> DO WHILE

  &SEWARD

  >>> IF (ITER == 1)

    &SCF
     Charge = 0
     Spin = 1

  >>> END IF

  &RASSCF
                  Title = cyclopent SA-3-CAS(2,2)SCF
                  symmetry = 1
                  Nactel = 2 0 0
                  Spin = 1
                  Inactive = 16
                  Ras2 = 2
                  ciroot  =  3  3  1

  &CASPT2
                  XMultiState = all
                  convergence = 1.0d-07
                  IPEA        = 0.00
                  IMAGinary   = 0.25
                  RLXRoot     = 2

  >>> COPY $WorkDir/$Project.JobMix $WorkDir/JOB001

  &ALASKA
                  CutOFF=1.0D-9
                  SHOW

  &SLAPAF

>>> END DO

&RASSI
        NR OF JOBIPHS= 1 3
        1 2 3
        TRDI
        CIPRint
        EJob

-- ----------------------------------

--- Start Module: gateway at Fri Jul 17 20:31:09 2026 ---
 
()()()()()()()()()()()()()()()()()()()()()()()()()()()()()()()()()()()()()()()()()()()()()()()()()()

                                              &GATEWAY

                       only a single process is used, running in SERIAL mode
                       available to each process: 2.0 GB of memory, 1 thread?
                                            pid: 2472771
()()()()()()()()()()()()()()()()()()()()()()()()()()()()()()()()()()()()()()()()()()()()()()()()()()
 
 
++    Symmetry information:
      ---------------------
 
                    Character Table for C1 
 
                             E  
                    a        1  x, y, xy, Rz, z, xz, Ry, yz, Rx, I
--
 
 
++    Basis set information:
      ----------------------
 
 
      Basis set label: C.6-31G**....
 
      Electronic valence basis set:
      ------------------
      Associated Effective Charge   6.000000 au
      Associated Actual Charge      6.000000 au
      Nuclear Model: Point charge
 
      Shell  nPrim  nBasis  Cartesian Spherical Contaminant
         s      10       3        X                  
         p       4       2        X                  
         d       1       1        X                  
 
 
      Basis set label: H.6-31G....
 
      Electronic valence basis set:
      ------------------
      Associated Effective Charge   1.000000 au
      Associated Actual Charge      1.000000 au
      Nuclear Model: Point charge
 
      Shell  nPrim  nBasis  Cartesian Spherical Contaminant
         s       4       2        X                  
--
 
 
++    Molecular structure info:
      -------------------------
 
                    ************************************************ 
                    **** Cartesian Coordinates / bohr, angstrom **** 
                    ************************************************ 
 
     Center  Label                x              y              z                     x              y              z
        1      C1               0.523054      -2.224475       0.000032              0.276788      -1.177141       0.000017
        2      C2              -1.883901      -1.388784      -0.000028             -0.996918      -0.734913      -0.000015
        3      C3              -1.883777       1.388957      -0.000022             -0.996852       0.735005      -0.000012
        4      C4               0.523252       2.224432       0.000041              0.276893       1.177119       0.000021
        5      C5               2.285347      -0.000099       0.000102              1.209353      -0.000053       0.000054
        6      H6               1.142765      -4.184779       0.000042              0.604725      -2.214489       0.000022
        7      H7              -3.576199      -2.559266      -0.000069             -1.892443      -1.354305      -0.000036
        8      H8              -3.575972       2.559589      -0.000058             -1.892323       1.354476      -0.000031
        9      H9               1.143141       4.184680       0.000059              0.604924       2.214437       0.000031
       10      H10              3.532724      -0.000157       1.668575              1.869437      -0.000083       0.882972
       11      H11              3.532937      -0.000151      -1.668205              1.869550      -0.000080      -0.882776
 
                    *************************************** 
                    *    InterNuclear Distances / bohr    * 
                    *************************************** 
 
               1 C1            2 C2            3 C3            4 C4            5 C5            6 H6    
    1 C1       0.000000
    2 C2       2.547904        0.000000
    3 C3       4.341627        2.777741        0.000000
    4 C4       4.448907        4.341626        2.547903        0.000000
    5 C5       2.837872        4.394436        4.394436        2.837872        0.000000
    6 H6       2.055926        4.120473        6.342436        6.439082        4.337860        0.000000
    7 H7       4.112902        2.057644        4.295667        6.299942        6.395862        4.991083
    8 H8       6.299943        4.295666        2.057644        4.112903        6.395862        8.231219
    9 H9       6.439081        6.342435        4.120473        2.055926        4.337858        8.369459
   10 H10      4.097528        5.835439        5.835438        4.097527        2.083207        5.099702
   11 H11      4.097563        5.835517        5.835516        4.097562        2.083202        5.099714
 
               7 H7            8 H8            9 H9           10 H10          11 H11   
    7 H7       0.000000
    8 H8       5.118855        0.000000
    9 H9       8.231219        4.991086        0.000000
   10 H10      7.737583        7.737583        5.099698        0.000000
   11 H11      7.737672        7.737672        5.099710        3.336780        0.000000
 
                    ******************************************* 
                    *    InterNuclear Distances / angstrom    * 
                    ******************************************* 
 
               1 C1            2 C2            3 C3            4 C4            5 C5            6 H6    
    1 C1       0.000000
    2 C2       1.348293        0.000000
    3 C3       2.297490        1.469917        0.000000
    4 C4       2.354260        2.297490        1.348292        0.000000
    5 C5       1.501737        2.325436        2.325436        1.501737        0.000000
    6 H6       1.087949        2.180460        3.356272        3.407416        2.295497        0.000000
    7 H7       2.176454        1.088859        2.273169        3.333786        3.384544        2.641168
    8 H8       3.333786        2.273169        1.088859        2.176454        3.384545        4.355774
    9 H9       3.407415        3.356272        2.180460        1.087949        2.295496        4.428927
   10 H10      2.168318        3.087981        3.087981        2.168318        1.102386        2.698646
   11 H11      2.168337        3.088022        3.088022        2.168337        1.102383        2.698652
 
               7 H7            8 H8            9 H9           10 H10          11 H11   
    7 H7       0.000000
    8 H8       2.708781        0.000000
    9 H9       4.355774        2.641169        0.000000
   10 H10      4.094553        4.094553        2.698644        0.000000
   11 H11      4.094600        4.094600        2.698650        1.765748        0.000000
 
                    ************************************** 
                    *    Valence Bond Angles / degree    * 
                    ************************************** 
                          Atom centers                 Phi
                      2 C2       1 C1       5 C5       109.24
                      2 C2       1 C1       6 H6       126.69
                      5 C5       1 C1       6 H6       124.07
                      1 C1       2 C2       3 C3       109.14
                      1 C1       2 C2       7 H7       126.18
                      3 C3       2 C2       7 H7       124.67
                      2 C2       3 C3       4 C4       109.14
                      2 C2       3 C3       8 H8       124.67
                      4 C4       3 C3       8 H8       126.18
                      3 C3       4 C4       5 C5       109.24
                      3 C3       4 C4       9 H9       126.69
                      5 C5       4 C4       9 H9       124.07
                      1 C1       5 C5       4 C4       103.23
                      1 C1       5 C5      10 H10      111.83
                      1 C1       5 C5      11 H11      111.83
                      4 C4       5 C5      10 H10      111.83
                      4 C4       5 C5      11 H11      111.83
                     10 H10      5 C5      11 H11      106.43
 
           ***************************************************************
           *              Valence Dihedral Angles / degree               *
           ***************************************************************
                    Atom centers                       Phi1     Phi2     Theta 
           5 C5       1 C1       2 C2       7 H7        109.24   126.18  -180.00
           6 H6       1 C1       2 C2       7 H7        126.69   126.18     0.00
           2 C2       1 C1       5 C5       4 C4        109.24   103.23    -0.00
           2 C2       1 C1       5 C5      10 H10       109.24   111.83   120.37
           2 C2       1 C1       5 C5      11 H11       109.24   111.83  -120.38
           6 H6       1 C1       5 C5      10 H10       124.07   111.83   -59.63
           6 H6       1 C1       5 C5      11 H11       124.07   111.83    59.62
           3 C3       2 C2       1 C1       5 C5        109.14   109.24     0.00
           3 C3       2 C2       1 C1       6 H6        109.14   126.69  -180.00
           1 C1       2 C2       3 C3       4 C4        109.14   109.14     0.00
           1 C1       2 C2       3 C3       8 H8        109.14   124.67  -180.00
           7 H7       2 C2       3 C3       8 H8        124.67   124.67    -0.00
           4 C4       3 C3       2 C2       7 H7        109.14   124.67   180.00
           2 C2       3 C3       4 C4       5 C5        109.14   109.24    -0.00
           2 C2       3 C3       4 C4       9 H9        109.14   126.69   180.00
           8 H8       3 C3       4 C4       9 H9        126.18   126.69    -0.00
           5 C5       4 C4       3 C3       8 H8        109.24   126.18   180.00
           3 C3       4 C4       5 C5      10 H10       109.24   111.83  -120.37
           3 C3       4 C4       5 C5      11 H11       109.24   111.83   120.38
           9 H9       4 C4       5 C5      10 H10       124.07   111.83    59.63
           9 H9       4 C4       5 C5      11 H11       124.07   111.83   -59.62
           4 C4       5 C5       1 C1       6 H6        103.23   124.07   180.00
           1 C1       5 C5       4 C4       3 C3        103.23   109.24     0.00
           1 C1       5 C5       4 C4       9 H9        103.23   124.07  -180.00
--
 
 
            Nuclear Potential Energy            156.53464132 au
 
--- Stop Module: gateway at Fri Jul 17 20:31:10 2026 /rc=_RC_ALL_IS_WELL_ ---
*** files: c5h6_project.RICDLib xmldump
    saved to directory /vscratch/grp-cyberwksp21/sbakenhaster/wed_7_8/openmolcas_pyspawn/Tutorials_OpenMolcas/03_S1_Optimization_CASPT2/c5h6_project
--- Module gateway spent 1 second ---

--- Start Module: seward at Fri Jul 17 20:31:10 2026 ---
 
()()()()()()()()()()()()()()()()()()()()()()()()()()()()()()()()()()()()()()()()()()()()()()()()()()

                                              &SEWARD

                       only a single process is used, running in SERIAL mode
                       available to each process: 2.0 GB of memory, 1 thread?
                                            pid: 2472774
()()()()()()()()()()()()()()()()()()()()()()()()()()()()()()()()()()()()()()()()()()()()()()()()()()
 
               SEWARD will generate:
                  Multipole Moment integrals up to order  2
                  Kinetic Energy integrals
                  Nuclear Attraction integrals (point charge)
                  One-Electron Hamiltonian integrals
                  Velocity integrals
                  Orbital angular momentum around ( -0.0457   0.0000   0.0000 )
                  Velocity quadrupole around ( -0.0457   0.0000   0.0000 )
                  RI decomposed two-electron repulsion integrals stored Cholesky style
                   - acCD auxiliary basis
                   - CD Threshold:   1.00E-04
 
                   Integrals are discarded if absolute value <: 1.00E-14
                   Integral cutoff threshold is set to       <: 1.00E-16
 
            Nuclear Potential Energy            156.53464132 au
 
 
      Basis set specifications :
      Symmetry species         a  
      Basis functions           87
 
 
      Input file to MOLDEN was generated!
 
--- Stop Module: seward at Fri Jul 17 20:31:12 2026 /rc=_RC_ALL_IS_WELL_ ---
*** files: c5h6_project.GssOrb c5h6_project.guessorb.h5 c5h6_project.guessorb.molden xmldump
    saved to directory /vscratch/grp-cyberwksp21/sbakenhaster/wed_7_8/openmolcas_pyspawn/Tutorials_OpenMolcas/03_S1_Optimization_CASPT2/c5h6_project
--- Module seward spent 1 second ---

>>> IF (ITER == 1)

--- Start Module: scf at Fri Jul 17 20:31:12 2026 ---
 
()()()()()()()()()()()()()()()()()()()()()()()()()()()()()()()()()()()()()()()()()()()()()()()()()()

                                                &SCF

                       only a single process is used, running in SERIAL mode
                       available to each process: 2.0 GB of memory, 1 thread?
                                            pid: 2472777
()()()()()()()()()()()()()()()()()()()()()()()()()()()()()()()()()()()()()()()()()()()()()()()()()()
 
++    Input section:
      --------------
 
      Header of the integral files:
      
       Integrals generated by Gateway/Seward, Fri Jul 17 20:31:11 2026
 
 
      Cartesian coordinates in angstrom:
      -----------------------------------------------------
      No.  Label        X            Y            Z        
      -----------------------------------------------------
       1   C1         0.27678843  -1.17714127   0.00001682
       2   C2        -0.99691753  -0.73491260  -0.00001492
       3   C3        -0.99685191   0.73500452  -0.00001183
       4   C4         0.27689328   1.17711896   0.00002146
       5   C5         1.20935334  -0.00005264   0.00005408
       6   H6         0.60472530  -2.21448948   0.00002231
       7   H7        -1.89244294  -1.35430518  -0.00003637
       8   H8        -1.89232267   1.35447612  -0.00003089
       9   H9         0.60492410   2.21443729   0.00003107
      10   H10        1.86943693  -0.00008335   0.88297181
      11   H11        1.86954997  -0.00007983  -0.88277600
      -----------------------------------------------------
      Nuclear repulsion energy =  156.53464132
--
 
++    Orbital specifications:
      -----------------------
 
      Symmetry species               1
                                     a
      Frozen orbitals                0
      Aufbau                        18
      Start temperature = 0.500
      End temperature   = 0.010
      Temperature Factor= 0.460
      Deleted orbitals               0
      Total number of orbitals      87
      Number of basis functions     87
--
 
      Molecular charge                           0.000
 
++    Optimization specifications:
      ----------------------------
 
      SCF Algorithm: LK-RI/DF
      LK screening threshold:                     4.50E-02
      Local-Exchange (LK) algorithm.
       - the density matrix is decomposed
      The actual AO density is used
      Number of density matrices in core                 5
      Maximum number of NDDO SCF iterations            400
      Maximum number of HF SCF iterations              400
      Threshold for SCF energy change             1.00E-09
      Threshold for density matrix                1.00E-04
      Threshold for Fock matrix                   1.50E-04
      Threshold for linear dependence             1.00E-09
      Threshold at which DIIS is turned on        1.50E-01
      Maximum depth in the DIIS procedure                5
      Maximum depth in the BFGS Hessian update          30
      Threshold at which QNR/C2DIIS is turned on  7.50E-02
      Threshold for Norm(delta) (QNR/C2DIIS)      1.00E-03
      All orbitals punched on: SCFORB
--
 
      Input vectors read from INPORB
      Orbital file label: * RASSCF average (pseudo-natural) orbita
 
 
++ Convergence information
                                   SCF        iterations: Energy and convergence statistics
 
Iter     Tot. SCF        One-elec.       Two-elec.     Energy      Max Dij or  Max Fij      DNorm      TNorm      AccCon     Time
         Energy          Energy          Energy        Change      Delta Norm                                                in Sec.
   1  -182.382426839  -551.990316302   213.073248144   0.00E+00    4.53E-02*   1.32E-01*    6.70E+01   2.20E+02   None         0.
   2  -189.134767508  -567.833426971   222.164018144  -6.75E+00*   1.09E-01*   1.09E-01*    1.78E+01   2.25E+02   EDIIS        0.
   3  -192.085023037  -566.798514108   218.178849752  -2.95E+00*   4.41E-02*   4.03E-02*    7.05E+00   2.23E+02   EDIIS        0.
   4  -192.734779604  -570.785932680   221.516511757  -6.50E-01*   6.52E-02*   4.31E-02*    6.40E+00   2.25E+02   EDIIS        0.
   5  -192.785918333  -568.620581170   219.300021518  -5.11E-02*   3.38E-02*   2.69E-02*    6.37E+00   2.24E+02   EDIIS        0.
   6  -192.788803447  -569.578752388   220.255307622  -2.89E-03*   2.32E-02*   1.40E-02*    6.38E+00   2.24E+02   EDIIS        0.
 
       Fermi aufbau procedure completed!
      nOcc=   18
 
   7  -192.789419425  -569.116499546   219.792438802  -6.16E-04*   6.42E-03*   4.98E-03*    6.37E+00   2.24E+02   c2DIIS       0.
   8  -192.789623854  -569.257332823   219.933067650  -2.04E-04*   2.33E-03*   1.09E-03*    6.38E+00   2.24E+02   QNRc2DIIS    0.
   9  -192.789631904  -569.259868147   219.935594924  -8.05E-06*   1.75E-03*   5.54E-04*    6.38E+00   2.24E+02   QNRc2DIIS    0.
  10  -192.789634610  -569.258160827   219.933884899  -2.71E-06*   1.09E-04    4.94E-05     6.38E+00   2.24E+02   QNRc2DIIS    0.
  11  -192.789634635  -569.257499477   219.933223524  -2.51E-08*   5.91E-05    1.14E-05     6.38E+00   2.24E+02   QNRc2DIIS    0.
  12  -192.789634639  -569.257871074   219.933595117  -4.08E-09*   7.26E-06    2.20E-06     6.38E+00   2.24E+02   QNRc2DIIS    0.
  13  -192.789634639  -569.257854186   219.933578229  -1.48E-10    1.60E-06    1.87E-06     6.38E+00   2.24E+02   QNRc2DIIS    0.
 
       Convergence after  13 Iterations
--
 
 *****************************************************************************************************************************
 *                                                                                                                           *
 *                                             SCF/KS-DFT Program, Final results                                             *
 *                                                                                                                           *
 *                                                                                                                           *
 *                                                                                                                           *
 *                                                       Final Results                                                       *
 *                                                                                                                           *
 *****************************************************************************************************************************
 
::    Total SCF energy                               -192.7896346389
      One-electron energy                            -569.2578541861
      Two-electron energy                             219.9335782286
      Nuclear repulsion energy                        156.5346413185
      Kinetic energy (interpolated)                   192.4492915266
      Virial theorem                                    1.0017684820
      Total spin, S(S+1)                                0.0000000000
      Total spin, S                                     0.0000000000
      Max non-diagonal density matrix element           0.0000027454
      Max non-diagonal Fock matrix element              0.0000012622
 
 
      All orbitals with orbital energies smaller than  E(LUMO)+0.5 are printed
 
++    Molecular orbitals:
      -------------------
 
      Title: SCF orbitals

      Molecular orbitals for symmetry species 1: a  
 
          Orbital            1         2         3         4         5         6         7         8         9        10    
          Energy          -11.2282  -11.2258  -11.2252  -11.2232  -11.2232   -1.1437   -0.9568   -0.9486   -0.7474   -0.7199
          Occ. No.          2.0000    2.0000    2.0000    2.0000    2.0000    2.0000    2.0000    2.0000    2.0000    2.0000
 
        1 C1     1s         0.0741    0.2169   -0.3084   -0.6928    0.6032   -0.0988    0.1271   -0.0219    0.0877    0.0609
        2 C1     2s         0.0021    0.0057   -0.0084   -0.0193    0.0168    0.1852   -0.2439    0.0440   -0.1744   -0.1206
        3 C1     *s         0.0036   -0.0000    0.0004    0.0118   -0.0099    0.1164   -0.2175    0.0257   -0.1531   -0.1034
        4 C1     2px        0.0001    0.0001   -0.0001    0.0000    0.0000   -0.0332    0.0673    0.1309    0.0493   -0.1765
        5 C1     *px        0.0013   -0.0010    0.0010   -0.0009    0.0013   -0.0017    0.0077    0.0254   -0.0044   -0.0700
        6 C1     2py        0.0000   -0.0000    0.0000   -0.0002    0.0002    0.0710    0.0003    0.0343    0.0979    0.0445
        7 C1     *py        0.0017    0.0003   -0.0004    0.0024   -0.0017    0.0080    0.0029   -0.0001    0.0630    0.0446
        8 C1     2pz        0.0000    0.0000   -0.0000   -0.0000    0.0000   -0.0000    0.0000    0.0000    0.0000   -0.0000
        9 C1     *pz        0.0000   -0.0000    0.0000    0.0000    0.0000   -0.0000    0.0000    0.0000    0.0000   -0.0000
       10 C1     *200      -0.0002   -0.0003    0.0004    0.0006   -0.0005    0.0043   -0.0058   -0.0011    0.0004    0.0031
       11 C1     *110      -0.0002   -0.0001    0.0000    0.0001   -0.0001   -0.0014    0.0059    0.0128    0.0105   -0.0009
       12 C1     *101      -0.0000    0.0000   -0.0000   -0.0000    0.0000    0.0000   -0.0000    0.0000   -0.0000   -0.0000
       13 C1     *020      -0.0003   -0.0003    0.0005    0.0006   -0.0006    0.0051   -0.0027    0.0058   -0.0058   -0.0093
       14 C1     *011      -0.0000   -0.0000   -0.0000    0.0000   -0.0000    0.0000    0.0000    0.0000    0.0000   -0.0000
       15 C1     *002      -0.0002   -0.0003    0.0004    0.0009   -0.0008   -0.0052    0.0053   -0.0014    0.0036    0.0028
       16 C2     1s         0.0182    0.6680   -0.6332    0.2339   -0.2986   -0.1010    0.0891    0.1006   -0.0436   -0.0875
       17 C2     2s         0.0003    0.0185   -0.0174    0.0068   -0.0084    0.1898   -0.1733   -0.1953    0.0894    0.1741
       18 C2     *s         0.0001   -0.0053    0.0097   -0.0059    0.0095    0.1217   -0.1319   -0.1581    0.0798    0.1442
       19 C2     2px       -0.0001   -0.0000   -0.0000    0.0001   -0.0002    0.0699   -0.0827    0.0222   -0.1654   -0.0676
       20 C2     *px        0.0001   -0.0005    0.0007   -0.0021    0.0025    0.0073    0.0073    0.0132   -0.0706   -0.0724
       21 C2     2py        0.0000    0.0001   -0.0002    0.0001   -0.0001    0.0392    0.0930   -0.0516    0.1256   -0.1085
       22 C2     *py       -0.0002    0.0002    0.0018    0.0001    0.0011    0.0060    0.0240   -0.0075    0.0275   -0.0593
       23 C2     2pz       -0.0000    0.0000   -0.0000    0.0000   -0.0000    0.0000   -0.0000    0.0000   -0.0000   -0.0000
       24 C2     *pz        0.0000   -0.0000    0.0000   -0.0000    0.0000    0.0000    0.0000    0.0000   -0.0000   -0.0000
       25 C2     *200       0.0000   -0.0007    0.0005   -0.0001    0.0001    0.0050   -0.0085   -0.0015   -0.0016    0.0071
       26 C2     *110       0.0000   -0.0000    0.0000   -0.0000   -0.0001    0.0011    0.0037   -0.0022    0.0080    0.0115
       27 C2     *101       0.0000    0.0000   -0.0000    0.0000   -0.0000    0.0000   -0.0000   -0.0000    0.0000    0.0000
       28 C2     *020      -0.0000   -0.0010    0.0005   -0.0002    0.0000    0.0044    0.0044   -0.0074    0.0075   -0.0017
       29 C2     *011       0.0000   -0.0000   -0.0000    0.0000   -0.0000    0.0000    0.0000   -0.0000    0.0000    0.0000
       30 C2     *002      -0.0001   -0.0010    0.0008   -0.0003    0.0003   -0.0052    0.0033    0.0047   -0.0021   -0.0035
       31 C3     1s         0.0182    0.6688    0.6330    0.2058    0.3174   -0.1010   -0.0891    0.1006   -0.0436    0.0875
       32 C3     2s         0.0003    0.0185    0.0174    0.0060    0.0089    0.1898    0.1733   -0.1953    0.0894   -0.1741
       33 C3     *s         0.0001   -0.0053   -0.0097   -0.0050   -0.0100    0.1217    0.1319   -0.1581    0.0798   -0.1442
       34 C3     2px       -0.0001   -0.0000    0.0000    0.0001    0.0002    0.0699    0.0828    0.0222   -0.1654    0.0676
       35 C3     *px        0.0001   -0.0005   -0.0007   -0.0018   -0.0026    0.0073   -0.0073    0.0132   -0.0706    0.0724
       36 C3     2py       -0.0000   -0.0001   -0.0002   -0.0001   -0.0001   -0.0392    0.0930    0.0516   -0.1256   -0.1086
       37 C3     *py        0.0002   -0.0002    0.0018   -0.0002    0.0011   -0.0060    0.0240    0.0075   -0.0275   -0.0594
       38 C3     2pz       -0.0000    0.0000    0.0000    0.0000    0.0000    0.0000    0.0000    0.0000   -0.0000    0.0000
       39 C3     *pz        0.0000   -0.0000   -0.0000   -0.0000   -0.0000    0.0000   -0.0000    0.0000   -0.0000    0.0000
       40 C3     *200       0.0000   -0.0007   -0.0005   -0.0001   -0.0001    0.0050    0.0085   -0.0015   -0.0016   -0.0071
       41 C3     *110      -0.0000    0.0000    0.0000    0.0000   -0.0001   -0.0011    0.0037    0.0022   -0.0080    0.0115
       42 C3     *101       0.0000    0.0000    0.0000    0.0000    0.0000    0.0000    0.0000   -0.0000    0.0000   -0.0000
       43 C3     *020      -0.0000   -0.0010   -0.0005   -0.0002   -0.0001    0.0044   -0.0044   -0.0074    0.0075    0.0017
       44 C3     *011      -0.0000    0.0000    0.0000    0.0000    0.0000    0.0000    0.0000   -0.0000   -0.0000    0.0000
       45 C3     *002      -0.0001   -0.0010   -0.0008   -0.0003   -0.0004   -0.0052   -0.0033    0.0047   -0.0021    0.0035
       46 C4     1s         0.0740    0.2166    0.3073   -0.6375   -0.6620   -0.0988   -0.1271   -0.0220    0.0877   -0.0609
       47 C4     2s         0.0021    0.0057    0.0084   -0.0177   -0.0184    0.1852    0.2439    0.0440   -0.1744    0.1206
       48 C4     *s         0.0036   -0.0000   -0.0004    0.0109    0.0109    0.1164    0.2175    0.0257   -0.1531    0.1034
       49 C4     2px        0.0001    0.0001    0.0001    0.0000   -0.0000   -0.0332   -0.0673    0.1309    0.0493    0.1765
       50 C4     *px        0.0013   -0.0010   -0.0010   -0.0007   -0.0013   -0.0017   -0.0077    0.0254   -0.0044    0.0700
       51 C4     2py       -0.0000    0.0000    0.0000    0.0002    0.0002   -0.0710    0.0003   -0.0343   -0.0979    0.0445
       52 C4     *py       -0.0017   -0.0003   -0.0004   -0.0023   -0.0019   -0.0080    0.0029    0.0001   -0.0630    0.0446
       53 C4     2pz        0.0000    0.0000    0.0000   -0.0000   -0.0000   -0.0000   -0.0000    0.0000    0.0000    0.0000
       54 C4     *pz        0.0000   -0.0000   -0.0000   -0.0000   -0.0000   -0.0000    0.0000    0.0000    0.0000    0.0000
       55 C4     *200      -0.0002   -0.0003   -0.0004    0.0005    0.0006    0.0043    0.0058   -0.0011    0.0004   -0.0031
       56 C4     *110       0.0002    0.0001    0.0000   -0.0001   -0.0001    0.0014    0.0059   -0.0128   -0.0105   -0.0009
       57 C4     *101      -0.0000    0.0000    0.0000   -0.0000   -0.0000    0.0000    0.0000    0.0000   -0.0000    0.0000
       58 C4     *020      -0.0003   -0.0003   -0.0005    0.0005    0.0006    0.0051    0.0027    0.0058   -0.0058    0.0093
       59 C4     *011       0.0000    0.0000   -0.0000   -0.0000   -0.0000   -0.0000    0.0000   -0.0000   -0.0000   -0.0000
       60 C4     *002      -0.0002   -0.0003   -0.0004    0.0008    0.0009   -0.0052   -0.0053   -0.0014    0.0036   -0.0028
       61 C5     1s         0.9899   -0.0573    0.0001    0.0919    0.0040   -0.0952    0.0000   -0.1469   -0.0772    0.0000
       62 C5     2s         0.0285   -0.0017    0.0000    0.0025    0.0001    0.1753   -0.0000    0.2775    0.1459   -0.0000
       63 C5     *s        -0.0174    0.0016   -0.0000   -0.0071   -0.0003    0.1368   -0.0000    0.2839    0.1653   -0.0000
       64 C5     2px       -0.0001    0.0001   -0.0000   -0.0002   -0.0000   -0.0659    0.0000    0.0187    0.1309    0.0000
       65 C5     *px        0.0014   -0.0004    0.0000    0.0026    0.0001   -0.0088    0.0000    0.0117    0.0717    0.0000
       66 C5     2py       -0.0000   -0.0000   -0.0001    0.0000   -0.0000    0.0000    0.1082    0.0000   -0.0000    0.1836
       67 C5     *py       -0.0000   -0.0000    0.0005    0.0001   -0.0013    0.0000    0.0202   -0.0000   -0.0000    0.0716
       68 C5     2pz        0.0000    0.0000   -0.0000   -0.0000   -0.0000   -0.0000    0.0000    0.0000    0.0000    0.0000
       69 C5     *pz       -0.0000   -0.0000    0.0000    0.0000    0.0000    0.0000    0.0000    0.0000    0.0000    0.0000
       70 C5     *200      -0.0009    0.0001    0.0000    0.0002    0.0000    0.0054   -0.0000    0.0026    0.0014   -0.0000
       71 C5     *110      -0.0000   -0.0000    0.0001    0.0000   -0.0003   -0.0000   -0.0148   -0.0000   -0.0000   -0.0134
       72 C5     *101      -0.0000    0.0000    0.0000    0.0000    0.0000    0.0000   -0.0000   -0.0000   -0.0000   -0.0000
       73 C5     *020      -0.0010   -0.0000    0.0000    0.0002    0.0000    0.0030    0.0000    0.0015   -0.0070    0.0000
       74 C5     *011      -0.0000   -0.0000    0.0000    0.0000   -0.0000    0.0000   -0.0000   -0.0000   -0.0000   -0.0000
       75 C5     *002      -0.0009    0.0001   -0.0000   -0.0000   -0.0000   -0.0009   -0.0000    0.0054    0.0084   -0.0000
       76 H6     1s        -0.0001   -0.0001    0.0001    0.0002   -0.0002    0.0337   -0.0829    0.0192   -0.1193   -0.1083
       77 H6     *s         0.0002    0.0005   -0.0006   -0.0009    0.0008    0.0029   -0.0213    0.0045   -0.0510   -0.0515
       78 H7     1s        -0.0000   -0.0002    0.0001   -0.0001    0.0001    0.0343   -0.0568   -0.0683    0.0736    0.1431
       79 H7     *s         0.0001    0.0011   -0.0010    0.0001   -0.0003    0.0029   -0.0076   -0.0180    0.0316    0.0618
       80 H8     1s        -0.0000   -0.0002   -0.0001   -0.0001   -0.0001    0.0343    0.0568   -0.0683    0.0736   -0.1431
       81 H8     *s         0.0001    0.0011    0.0010    0.0001    0.0003    0.0029    0.0076   -0.0180    0.0316   -0.0618
       82 H9     1s        -0.0001   -0.0001   -0.0001    0.0002    0.0002    0.0337    0.0829    0.0192   -0.1193    0.1083
       83 H9     *s         0.0002    0.0005    0.0005   -0.0008   -0.0009    0.0029    0.0213    0.0045   -0.0510    0.0515
       84 H10    1s         0.0002   -0.0001    0.0000    0.0002    0.0000    0.0411   -0.0000    0.1048    0.1037   -0.0000
       85 H10    *s         0.0026    0.0001   -0.0000   -0.0003   -0.0000    0.0010   -0.0000    0.0270    0.0484   -0.0000
       86 H11    1s         0.0002   -0.0001    0.0000    0.0002    0.0000    0.0411   -0.0000    0.1048    0.1037   -0.0000
       87 H11    *s         0.0026    0.0001   -0.0000   -0.0003   -0.0000    0.0010   -0.0000    0.0270    0.0484   -0.0000
 
          Orbital           11        12        13        14        15        16        17        18        19        20    
          Energy           -0.6873   -0.5871   -0.5537   -0.5201   -0.5019   -0.4967   -0.4058   -0.3008    0.1386    0.2568
          Occ. No.          2.0000    2.0000    2.0000    2.0000    2.0000    2.0000    2.0000    2.0000    0.0000    0.0000
 
        1 C1     1s        -0.0158    0.0000   -0.0251    0.0097    0.0104    0.0042   -0.0000   -0.0000   -0.0000    0.0368
        2 C1     2s         0.0299   -0.0000    0.0525   -0.0169   -0.0261   -0.0099    0.0000    0.0000    0.0000   -0.0745
        3 C1     *s         0.0620   -0.0000    0.0515   -0.0455   -0.0221   -0.0306   -0.0000   -0.0000    0.0000   -0.4322
        4 C1     2px        0.0563   -0.0000   -0.1842   -0.2593   -0.0698   -0.1833   -0.0000    0.0000   -0.0000   -0.0406
        5 C1     *px        0.0213   -0.0000   -0.0766   -0.1170   -0.0280   -0.0692   -0.0000    0.0000   -0.0000   -0.0965
        6 C1     2py       -0.2132   -0.0000    0.2105    0.0396   -0.1589   -0.2437    0.0000    0.0000    0.0000    0.1108
        7 C1     *py       -0.0769   -0.0000    0.1002    0.0297   -0.0809   -0.1448   -0.0000    0.0000    0.0000    0.4453
        8 C1     2pz        0.0000    0.1273   -0.0000   -0.0000    0.0000   -0.0000    0.1757   -0.3169    0.2861   -0.0000
        9 C1     *pz        0.0000    0.0612   -0.0000   -0.0000    0.0000   -0.0000    0.1424   -0.2886    0.4876    0.0000
       10 C1     *200       0.0003   -0.0000    0.0052    0.0081    0.0004   -0.0040    0.0000   -0.0000   -0.0000   -0.0065
       11 C1     *110      -0.0017   -0.0000   -0.0001   -0.0001   -0.0196   -0.0201    0.0000    0.0000    0.0000   -0.0075
       12 C1     *101       0.0000    0.0012    0.0000    0.0000   -0.0000   -0.0000   -0.0204    0.0150    0.0081   -0.0000
       13 C1     *020       0.0024   -0.0000   -0.0094   -0.0129    0.0001    0.0054    0.0000    0.0000    0.0000    0.0063
       14 C1     *011      -0.0000    0.0092    0.0000    0.0000   -0.0000   -0.0000    0.0051   -0.0048   -0.0027   -0.0000
       15 C1     *002      -0.0000    0.0000   -0.0003    0.0014    0.0006    0.0000   -0.0000    0.0000    0.0000    0.0001
       16 C2     1s        -0.0112    0.0000   -0.0091   -0.0093   -0.0237    0.0125    0.0000   -0.0000    0.0000    0.0354
       17 C2     2s         0.0229   -0.0000    0.0236    0.0188    0.0541   -0.0231   -0.0000    0.0000    0.0000   -0.0487
       18 C2     *s         0.0442   -0.0000   -0.0104    0.0048    0.0576   -0.0177    0.0000    0.0000   -0.0000   -0.6295
       19 C2     2px       -0.1758   -0.0000    0.2716    0.1637    0.1187    0.1183   -0.0000    0.0000    0.0000    0.0948
       20 C2     *px       -0.0679   -0.0000    0.1103    0.0600    0.0645    0.0823   -0.0000    0.0000    0.0000    0.2442
       21 C2     2py       -0.1391   -0.0000    0.0288   -0.2603    0.2518   -0.0041   -0.0000    0.0000    0.0000    0.0658
       22 C2     *py       -0.0511   -0.0000    0.0168   -0.1170    0.1229    0.0191   -0.0000    0.0000    0.0000    0.1614
       23 C2     2pz       -0.0000    0.0892    0.0000    0.0000    0.0000    0.0000    0.2882   -0.2334   -0.2063    0.0000
       24 C2     *pz       -0.0000    0.0501    0.0000    0.0000    0.0000    0.0000    0.2136   -0.2137   -0.3576    0.0000
       25 C2     *200       0.0025   -0.0000    0.0012    0.0065   -0.0113   -0.0047   -0.0000    0.0000   -0.0000    0.0025
       26 C2     *110       0.0016    0.0000   -0.0201   -0.0004   -0.0131   -0.0165   -0.0000   -0.0000    0.0000    0.0148
       27 C2     *101       0.0000    0.0078    0.0000    0.0000   -0.0000   -0.0000    0.0137   -0.0183    0.0207    0.0000
       28 C2     *020       0.0004   -0.0000   -0.0065   -0.0079    0.0087    0.0020   -0.0000   -0.0000    0.0000   -0.0015
       29 C2     *011      -0.0000    0.0017   -0.0000   -0.0000   -0.0000   -0.0000    0.0080    0.0152   -0.0175    0.0000
       30 C2     *002       0.0001    0.0000    0.0005    0.0001   -0.0001    0.0006    0.0000   -0.0000    0.0000   -0.0005
       31 C3     1s        -0.0112    0.0000    0.0091   -0.0093   -0.0237   -0.0125    0.0000    0.0000    0.0000    0.0354
       32 C3     2s         0.0229   -0.0000   -0.0236    0.0188    0.0541    0.0231   -0.0000   -0.0000    0.0000   -0.0487
       33 C3     *s         0.0442   -0.0000    0.0104    0.0048    0.0576    0.0177    0.0000   -0.0000   -0.0000   -0.6295
       34 C3     2px       -0.1757   -0.0000   -0.2716    0.1637    0.1186   -0.1183   -0.0000   -0.0000    0.0000    0.0948
       35 C3     *px       -0.0679   -0.0000   -0.1103    0.0600    0.0644   -0.0823   -0.0000   -0.0000    0.0000    0.2442
       36 C3     2py        0.1391    0.0000    0.0288    0.2603   -0.2518   -0.0041   -0.0000   -0.0000    0.0000   -0.0658
       37 C3     *py        0.0511    0.0000    0.0168    0.1170   -0.1229    0.0191   -0.0000    0.0000    0.0000   -0.1615
       38 C3     2pz       -0.0000    0.0892   -0.0000    0.0000    0.0000   -0.0000    0.2882    0.2334   -0.2063    0.0000
       39 C3     *pz       -0.0000    0.0501   -0.0000    0.0000    0.0000   -0.0000    0.2136    0.2137   -0.3576    0.0000
       40 C3     *200       0.0025   -0.0000   -0.0012    0.0065   -0.0113    0.0047   -0.0000   -0.0000   -0.0000    0.0025
       41 C3     *110      -0.0016   -0.0000   -0.0201    0.0004    0.0131   -0.0165    0.0000   -0.0000   -0.0000   -0.0148
       42 C3     *101       0.0000    0.0078   -0.0000    0.0000   -0.0000    0.0000    0.0137    0.0183    0.0207    0.0000
       43 C3     *020       0.0004   -0.0000    0.0066   -0.0079    0.0087   -0.0020   -0.0000    0.0000   -0.0000   -0.0015
       44 C3     *011       0.0000   -0.0017   -0.0000   -0.0000    0.0000   -0.0000   -0.0080    0.0152    0.0175   -0.0000
       45 C3     *002       0.0001    0.0000   -0.0005    0.0001   -0.0001   -0.0006    0.0000    0.0000    0.0000   -0.0005
       46 C4     1s        -0.0158    0.0000    0.0251    0.0097    0.0104   -0.0042   -0.0000    0.0000   -0.0000    0.0368
       47 C4     2s         0.0299   -0.0000   -0.0525   -0.0169   -0.0261    0.0099    0.0000   -0.0000    0.0000   -0.0745
       48 C4     *s         0.0620   -0.0000   -0.0515   -0.0455   -0.0221    0.0306   -0.0000    0.0000    0.0000   -0.4321
       49 C4     2px        0.0564   -0.0000    0.1842   -0.2593   -0.0697    0.1833   -0.0000   -0.0000   -0.0000   -0.0407
       50 C4     *px        0.0213   -0.0000    0.0766   -0.1170   -0.0280    0.0692   -0.0000   -0.0000   -0.0000   -0.0965
       51 C4     2py        0.2132    0.0000    0.2105   -0.0396    0.1589   -0.2437   -0.0000    0.0000   -0.0000   -0.1108
       52 C4     *py        0.0769    0.0000    0.1002   -0.0297    0.0809   -0.1448    0.0000   -0.0000   -0.0000   -0.4452
       53 C4     2pz        0.0000    0.1273    0.0000   -0.0000    0.0000    0.0000    0.1757    0.3169    0.2861   -0.0000
       54 C4     *pz        0.0000    0.0612    0.0000   -0.0000    0.0000    0.0000    0.1424    0.2886    0.4876   -0.0000
       55 C4     *200       0.0003   -0.0000   -0.0052    0.0081    0.0004    0.0040    0.0000    0.0000   -0.0000   -0.0065
       56 C4     *110       0.0017    0.0000   -0.0001    0.0001    0.0196   -0.0201    0.0000    0.0000   -0.0000    0.0075
       57 C4     *101       0.0000    0.0012   -0.0000    0.0000   -0.0000    0.0000   -0.0204   -0.0150    0.0081   -0.0000
       58 C4     *020       0.0024   -0.0000    0.0094   -0.0129    0.0001   -0.0054    0.0000   -0.0000    0.0000    0.0063
       59 C4     *011       0.0000   -0.0092    0.0000   -0.0000    0.0000   -0.0000   -0.0051   -0.0048    0.0027    0.0000
       60 C4     *002      -0.0000    0.0000    0.0003    0.0014    0.0006   -0.0000   -0.0000   -0.0000    0.0000    0.0001
       61 C5     1s        -0.0038    0.0000   -0.0000   -0.0064    0.0282   -0.0000   -0.0000    0.0000   -0.0000    0.0687
       62 C5     2s         0.0066   -0.0000    0.0000    0.0023   -0.0624    0.0000    0.0000   -0.0000    0.0000   -0.0343
       63 C5     *s         0.0148    0.0000    0.0000    0.0323   -0.0817    0.0000    0.0000   -0.0000    0.0000   -1.3598
       64 C5     2px        0.1669   -0.0000   -0.0000    0.2254    0.3061   -0.0000    0.0000    0.0000   -0.0000   -0.1305
       65 C5     *px        0.0675   -0.0000    0.0000    0.1242    0.1681   -0.0000   -0.0000    0.0000   -0.0000   -0.2676
       66 C5     2py       -0.0000   -0.0000   -0.0267   -0.0000    0.0000    0.3653    0.0000   -0.0000    0.0000    0.0000
       67 C5     *py       -0.0000   -0.0000   -0.0067   -0.0000    0.0000    0.1932    0.0000   -0.0000   -0.0000    0.0000
       68 C5     2pz        0.0000    0.3955   -0.0000    0.0000    0.0000    0.0000   -0.1763   -0.0000   -0.0025   -0.0000
       69 C5     *pz        0.0000    0.2129    0.0000    0.0000    0.0000    0.0000   -0.1112   -0.0000    0.0521   -0.0000
       70 C5     *200      -0.0042   -0.0000    0.0000    0.0055    0.0008   -0.0000    0.0000   -0.0000    0.0000    0.0083
       71 C5     *110      -0.0000   -0.0000    0.0099   -0.0000   -0.0000   -0.0228    0.0000   -0.0000    0.0000   -0.0000
       72 C5     *101      -0.0000    0.0255    0.0000   -0.0000   -0.0000   -0.0000   -0.0279    0.0000   -0.0316   -0.0000
       73 C5     *020      -0.0004   -0.0000   -0.0000   -0.0123   -0.0087    0.0000    0.0000   -0.0000    0.0000   -0.0050
       74 C5     *011      -0.0000   -0.0000    0.0000   -0.0000   -0.0000   -0.0000    0.0000    0.0196    0.0000   -0.0000
       75 C5     *002       0.0065    0.0000    0.0000    0.0095    0.0099   -0.0000   -0.0000    0.0000   -0.0000    0.0053
       76 H6     1s         0.1335    0.0000   -0.1389   -0.0979    0.0809    0.1236   -0.0000   -0.0000    0.0000    0.0209
       77 H6     *s         0.0808   -0.0000   -0.1125   -0.0812    0.0710    0.1006   -0.0000   -0.0000    0.0000    0.8752
       78 H7     1s         0.1312    0.0000   -0.1485    0.0204   -0.1437   -0.0897    0.0000    0.0000    0.0000    0.0324
       79 H7     *s         0.0792    0.0000   -0.1217    0.0120   -0.1288   -0.0696    0.0000    0.0000    0.0000    0.8077
       80 H8     1s         0.1312    0.0000    0.1485    0.0204   -0.1437    0.0897    0.0000   -0.0000    0.0000    0.0324
       81 H8     *s         0.0791    0.0000    0.1217    0.0120   -0.1288    0.0696    0.0000   -0.0000    0.0000    0.8077
       82 H9     1s         0.1335    0.0000    0.1389   -0.0979    0.0808   -0.1236   -0.0000    0.0000    0.0000    0.0209
       83 H9     *s         0.0808   -0.0000    0.1125   -0.0812    0.0710   -0.1006   -0.0000    0.0000    0.0000    0.8752
       84 H10    1s         0.0593    0.2003    0.0000    0.1000    0.0977   -0.0000   -0.1228   -0.0000   -0.1058    0.0139
       85 H10    *s         0.0399    0.1485    0.0000    0.0844    0.0933   -0.0000   -0.1401   -0.0000   -0.3307    0.7951
       86 H11    1s         0.0593   -0.2003    0.0000    0.1000    0.0977   -0.0000    0.1228    0.0000    0.1058    0.0139
       87 H11    *s         0.0399   -0.1485    0.0000    0.0844    0.0933   -0.0000    0.1401    0.0000    0.3307    0.7952
 
          Orbital           21        22        23        24        25        26        27        28        29        30    
          Energy            0.2618    0.2907    0.3152    0.3220    0.3220    0.3307    0.3813    0.4055    0.5023    0.5199
          Occ. No.          0.0000    0.0000    0.0000    0.0000    0.0000    0.0000    0.0000    0.0000    0.0000    0.0000
 
        1 C1     1s        -0.0000    0.0346    0.0480    0.0511    0.0623   -0.0000   -0.0581   -0.0116    0.0770   -0.0494
        2 C1     2s         0.0000   -0.0003   -0.0360   -0.0868   -0.0886    0.0000    0.0607    0.0067   -0.0329   -0.0313
        3 C1     *s         0.0000   -0.5447   -1.2909   -0.3162   -0.8243   -0.0000    1.3706    0.2251   -3.0264    2.2991
        4 C1     2px        0.0000   -0.0389   -0.0784   -0.0219   -0.0432    0.0000    0.0933    0.1425    0.1546    0.1647
        5 C1     *px        0.0000   -0.3952   -0.3237   -0.1864   -0.1680    0.0000    0.2890    1.2733    0.9268   -1.0939
        6 C1     2py        0.0000    0.0349    0.1854    0.0438    0.0848    0.0000    0.1524    0.1074   -0.0904    0.1299
        7 C1     *py        0.0000    0.1031    0.7184    0.7315    0.8206   -0.0000    0.6660    1.0473   -1.8890    1.6468
        8 C1     2pz       -0.2025   -0.0000   -0.0000   -0.0000   -0.0000   -0.0376    0.0000    0.0000    0.0000    0.0000
        9 C1     *pz       -0.5372   -0.0000   -0.0000   -0.0000    0.0000   -0.4775    0.0000    0.0000    0.0000   -0.0000
       10 C1     *200       0.0000    0.0052    0.0012    0.0065    0.0007   -0.0000   -0.0064    0.0135   -0.0149    0.0063
       11 C1     *110      -0.0000   -0.0036   -0.0016   -0.0069    0.0132   -0.0000   -0.0199   -0.0116   -0.0012    0.0269
       12 C1     *101      -0.0254    0.0000   -0.0000    0.0000   -0.0000    0.0029   -0.0000    0.0000   -0.0000    0.0000
       13 C1     *020       0.0000    0.0085   -0.0020   -0.0026    0.0041   -0.0000    0.0093   -0.0047   -0.0086    0.0087
       14 C1     *011       0.0042    0.0000   -0.0000   -0.0000    0.0000    0.0169   -0.0000   -0.0000    0.0000    0.0000
       15 C1     *002      -0.0000   -0.0027    0.0012   -0.0004   -0.0005    0.0000    0.0008   -0.0026    0.0076   -0.0054
       16 C2     1s         0.0000    0.0182    0.0222   -0.0810   -0.0421   -0.0000   -0.0361   -0.0369   -0.0454    0.0901
       17 C2     2s        -0.0000    0.0159   -0.0143    0.1467    0.0455    0.0000    0.0481    0.0438    0.0015    0.0184
       18 C2     *s         0.0000   -0.6186   -0.6731    0.6101    0.8378    0.0000    0.5861    1.0310    1.9133   -3.8748
       19 C2     2px       -0.0000    0.1011    0.1211   -0.0957   -0.1107   -0.0000   -0.0394    0.0948   -0.0112   -0.1107
       20 C2     *px       -0.0000    0.2286    0.5910   -1.1056   -0.5041   -0.0000   -0.4676    0.4058    1.6814   -1.9931
       21 C2     2py        0.0000    0.0682    0.0532   -0.0302   -0.0933   -0.0000    0.1832   -0.0693    0.1306   -0.0766
       22 C2     *py        0.0000    0.2343    0.0257   -0.6462   -0.6222   -0.0000    0.8692   -0.5153   -0.3566   -2.1367
       23 C2     2pz        0.3100    0.0000    0.0000   -0.0000   -0.0000    0.0175   -0.0000    0.0000   -0.0000   -0.0000
       24 C2     *pz        0.7602    0.0000    0.0000   -0.0000   -0.0000    0.1162   -0.0000    0.0000    0.0000   -0.0001
       25 C2     *200       0.0000    0.0004    0.0033   -0.0016   -0.0016    0.0000    0.0111    0.0023   -0.0091   -0.0153
       26 C2     *110       0.0000    0.0086   -0.0029    0.0059    0.0030   -0.0000    0.0099    0.0190    0.0158    0.0134
       27 C2     *101      -0.0098   -0.0000    0.0000   -0.0000    0.0000    0.0017    0.0000   -0.0000    0.0000   -0.0000
       28 C2     *020      -0.0000    0.0049   -0.0032   -0.0076    0.0023   -0.0000   -0.0133   -0.0004    0.0176   -0.0057
       29 C2     *011      -0.0140    0.0000   -0.0000    0.0000    0.0000    0.0098    0.0000    0.0000    0.0000    0.0000
       30 C2     *002      -0.0000    0.0002    0.0002    0.0022   -0.0014    0.0000    0.0019   -0.0012   -0.0022    0.0078
       31 C3     1s        -0.0000    0.0182   -0.0223    0.0807   -0.0426   -0.0000    0.0361   -0.0369   -0.0454   -0.0901
       32 C3     2s         0.0000    0.0159    0.0143   -0.1465    0.0464    0.0000   -0.0481    0.0438    0.0015   -0.0184
       33 C3     *s        -0.0000   -0.6186    0.6733   -0.6051    0.8413    0.0000   -0.5861    1.0309    1.9133    3.8748
       34 C3     2px        0.0000    0.1011   -0.1211    0.0950   -0.1112   -0.0000    0.0395    0.0948   -0.0112    0.1107
       35 C3     *px        0.0000    0.2285   -0.5911    1.1025   -0.5104   -0.0000    0.4677    0.4058    1.6814    1.9929
       36 C3     2py        0.0000   -0.0682    0.0532   -0.0296    0.0935    0.0000    0.1832    0.0693   -0.1306   -0.0766
       37 C3     *py        0.0000   -0.2344    0.0259   -0.6426    0.6260    0.0000    0.8692    0.5153    0.3565   -2.1369
       38 C3     2pz       -0.3100    0.0000   -0.0000    0.0000   -0.0000    0.0175    0.0000    0.0000   -0.0000    0.0000
       39 C3     *pz       -0.7602    0.0000   -0.0000    0.0000   -0.0000    0.1162    0.0000    0.0000    0.0000    0.0000
       40 C3     *200      -0.0000    0.0004   -0.0033    0.0016   -0.0016    0.0000   -0.0111    0.0023   -0.0091    0.0153
       41 C3     *110       0.0000   -0.0086   -0.0029    0.0059   -0.0030    0.0000    0.0099   -0.0190   -0.0158    0.0134
       42 C3     *101       0.0098   -0.0000   -0.0000    0.0000    0.0000    0.0017   -0.0000   -0.0000    0.0000    0.0000
       43 C3     *020       0.0000    0.0049    0.0032    0.0076    0.0023   -0.0000    0.0133   -0.0004    0.0176    0.0057
       44 C3     *011      -0.0140   -0.0000   -0.0000    0.0000   -0.0000   -0.0098    0.0000   -0.0000   -0.0000    0.0000
       45 C3     *002       0.0000    0.0002   -0.0002   -0.0022   -0.0014    0.0000   -0.0019   -0.0012   -0.0022   -0.0078
       46 C4     1s         0.0000    0.0346   -0.0480   -0.0508    0.0626   -0.0000    0.0581   -0.0116    0.0770    0.0494
       47 C4     2s        -0.0000   -0.0003    0.0360    0.0863   -0.0891    0.0000   -0.0607    0.0067   -0.0329    0.0313
       48 C4     *s        -0.0000   -0.5447    1.2907    0.3113   -0.8265   -0.0000   -1.3706    0.2251   -3.0264   -2.2992
       49 C4     2px       -0.0000   -0.0389    0.0784    0.0216   -0.0434    0.0000   -0.0933    0.1425    0.1546   -0.1647
       50 C4     *px       -0.0000   -0.3952    0.3237    0.1855   -0.1692    0.0000   -0.2889    1.2732    0.9269    1.0941
       51 C4     2py        0.0000   -0.0349    0.1854    0.0433   -0.0851   -0.0000    0.1524   -0.1074    0.0904    0.1299
       52 C4     *py       -0.0000   -0.1030    0.7182    0.7266   -0.8250    0.0000    0.6660   -1.0474    1.8889    1.6467
       53 C4     2pz        0.2025   -0.0000    0.0000    0.0000   -0.0000   -0.0376   -0.0000    0.0000    0.0000   -0.0000
       54 C4     *pz        0.5372   -0.0000    0.0000    0.0000   -0.0000   -0.4775   -0.0000    0.0000    0.0000    0.0000
       55 C4     *200      -0.0000    0.0052   -0.0012   -0.0065    0.0007   -0.0000    0.0064    0.0135   -0.0149   -0.0063
       56 C4     *110      -0.0000    0.0036   -0.0016   -0.0070   -0.0131    0.0000   -0.0199    0.0116    0.0012    0.0269
       57 C4     *101       0.0254    0.0000    0.0000   -0.0000   -0.0000    0.0029    0.0000    0.0000   -0.0000   -0.0000
       58 C4     *020      -0.0000    0.0085    0.0020    0.0027    0.0041    0.0000   -0.0093   -0.0047   -0.0086   -0.0087
       59 C4     *011       0.0042   -0.0000    0.0000   -0.0000   -0.0000   -0.0169   -0.0000    0.0000   -0.0000    0.0000
       60 C4     *002       0.0000   -0.0027   -0.0012    0.0003   -0.0005    0.0000   -0.0008   -0.0026    0.0076    0.0054
       61 C5     1s        -0.0000   -0.1118   -0.0000   -0.0001   -0.0398    0.0000    0.0000    0.0885   -0.0574   -0.0000
       62 C5     2s         0.0000    0.0652    0.0000    0.0003    0.0975   -0.0000   -0.0000    0.0002   -0.0973   -0.0000
       63 C5     *s         0.0000    2.1863   -0.0000   -0.0002   -0.0654   -0.0001   -0.0000   -2.4409    2.3000    0.0000
       64 C5     2px        0.0000    0.1588   -0.0000   -0.0003   -0.1085   -0.0000    0.0000    0.1399   -0.0098   -0.0000
       65 C5     *px        0.0000    0.7761   -0.0000    0.0002    0.0721   -0.0001    0.0001    1.5725   -2.0096    0.0000
       66 C5     2py        0.0000   -0.0000   -0.0325   -0.0336    0.0001   -0.0000    0.2385   -0.0000    0.0000   -0.1783
       67 C5     *py        0.0000   -0.0000   -0.3775   -0.1881    0.0006   -0.0000    1.4599   -0.0001    0.0001    1.0060
       68 C5     2pz        0.0000    0.0000   -0.0000   -0.0000   -0.0000    0.3649    0.0000    0.0000    0.0000   -0.0000
       69 C5     *pz        0.0000    0.0001   -0.0000   -0.0000   -0.0000    1.6784    0.0000    0.0000   -0.0001    0.0000
       70 C5     *200       0.0000    0.0027   -0.0000   -0.0000   -0.0007    0.0000    0.0000   -0.0021   -0.0065    0.0000
       71 C5     *110      -0.0000   -0.0000    0.0039   -0.0164    0.0000    0.0000    0.0274    0.0000    0.0000    0.0347
       72 C5     *101       0.0000    0.0000    0.0000   -0.0000   -0.0000   -0.0007    0.0000    0.0000   -0.0000    0.0000
       73 C5     *020      -0.0000   -0.0089   -0.0000   -0.0000   -0.0051    0.0000   -0.0000    0.0139    0.0066   -0.0000
       74 C5     *011       0.0297   -0.0000    0.0000   -0.0000   -0.0000   -0.0000    0.0000    0.0000    0.0000    0.0000
       75 C5     *002       0.0000   -0.0063    0.0000    0.0000    0.0038   -0.0000   -0.0000   -0.0114    0.0013   -0.0000
       76 H6     1s         0.0000    0.0417   -0.0139    0.0084    0.0098   -0.0000    0.0757   -0.0436    0.0022   -0.0317
       77 H6     *s        -0.0000    0.5562    1.4870    0.9679    1.2947   -0.0000    0.2512    0.3868   -0.8496    0.8349
       78 H7     1s         0.0000    0.0019   -0.0075   -0.0158    0.0054    0.0000    0.0435    0.0734    0.0401    0.0134
       79 H7     *s         0.0000    0.6711    0.8816   -1.6678   -1.2482   -0.0000    0.0360   -0.1083    0.4773   -1.1786
       80 H8     1s        -0.0000    0.0019    0.0075    0.0159    0.0053    0.0000   -0.0435    0.0734    0.0401   -0.0134
       81 H8     *s        -0.0000    0.6711   -0.8819    1.6604   -1.2578   -0.0000   -0.0360   -0.1083    0.4773    1.1786
       82 H9     1s        -0.0000    0.0417    0.0139   -0.0083    0.0098   -0.0000   -0.0757   -0.0436    0.0022    0.0317
       83 H9     *s         0.0000    0.5562   -1.4867   -0.9603    1.3007   -0.0000   -0.2512    0.3868   -0.8496   -0.8349
       84 H10    1s        -0.0000    0.0021   -0.0000    0.0000    0.0017   -0.0016   -0.0000   -0.0894    0.0310    0.0000
       85 H10    *s        -0.0000   -1.2946    0.0000   -0.0002   -0.0578   -1.6466   -0.0000   -0.3096    0.3198    0.0000
       86 H11    1s         0.0000    0.0021   -0.0000    0.0000    0.0017    0.0016   -0.0000   -0.0894    0.0310    0.0000
       87 H11    *s         0.0000   -1.2945    0.0000   -0.0002   -0.0578    1.6467   -0.0000   -0.3096    0.3198    0.0000
--
 
 
++    Molecular charges:
      ------------------
 
      Mulliken charges per centre and basis function type
      ---------------------------------------------------
 
                C1      C2      C3      C4      C5      H6      H7      H8      H9      H10     H11   
      1s       1.9966  1.9966  1.9966  1.9966  1.9968  0.5203  0.5218  0.5218  0.5203  0.5132  0.5132
      2s       0.6630  0.6679  0.6679  0.6630  0.6328  0.0000  0.0000  0.0000  0.0000  0.0000  0.0000
      2px      0.7335  0.7475  0.7475  0.7335  0.7040  0.0000  0.0000  0.0000  0.0000  0.0000  0.0000
      2pz      0.5242  0.5233  0.5233  0.5242  0.6846  0.0000  0.0000  0.0000  0.0000  0.0000  0.0000
      2py      0.7111  0.7060  0.7060  0.7111  0.6659  0.0000  0.0000  0.0000  0.0000  0.0000  0.0000
      *s       0.5274  0.5001  0.5001  0.5274  0.6153  0.2859  0.2821  0.2821  0.2859  0.3004  0.3004
      *px      0.2043  0.2738  0.2738  0.2043  0.3242  0.0000  0.0000  0.0000  0.0000  0.0000  0.0000
      *pz      0.4733  0.4731  0.4730  0.4733  0.4038  0.0000  0.0000  0.0000  0.0000  0.0000  0.0000
      *py      0.3071  0.2421  0.2421  0.3071  0.2586  0.0000  0.0000  0.0000  0.0000  0.0000  0.0000
      *200     0.0179  0.0308  0.0308  0.0179  0.0144  0.0000  0.0000  0.0000  0.0000  0.0000  0.0000
      *110     0.0162  0.0155  0.0155  0.0162  0.0146  0.0000  0.0000  0.0000  0.0000  0.0000  0.0000
      *101     0.0085  0.0069  0.0069  0.0085  0.0165  0.0000  0.0000  0.0000  0.0000  0.0000  0.0000
      *020     0.0341  0.0219  0.0219  0.0341  0.0102  0.0000  0.0000  0.0000  0.0000  0.0000  0.0000
      *011     0.0020  0.0048  0.0048  0.0020  0.0058  0.0000  0.0000  0.0000  0.0000  0.0000  0.0000
      *002    -0.0185 -0.0182 -0.0182 -0.0185  0.0196  0.0000  0.0000  0.0000  0.0000  0.0000  0.0000
      Total    6.2007  6.1922  6.1922  6.2007  6.3670  0.8062  0.8039  0.8039  0.8062  0.8135  0.8135
 
      N-E     -0.2007 -0.1922 -0.1922 -0.2007 -0.3670  0.1938  0.1961  0.1961  0.1938  0.1865  0.1865
 
      Total electronic charge=   36.000000
 
      Total            charge=   -0.000000
--
 
 
++    Molecular properties:
      ---------------------
 
      Charge (e):
                      =   -0.0000
      Dipole Moment (debye):
      Origin of the operator (angstrom)=   -0.0242    0.0000    0.0000
                   X=  3.2666E-01               Y= -5.2174E-05               Z=  3.7548E-05           Total=  3.2666E-01
      Quadrupole Moment (debye*angstrom):
      Origin of the operator (angstrom)=   -0.0242    0.0000    0.0000
                  XX= -2.7118E+01              XY= -1.2870E-04              XZ=  1.5168E-04              YY= -2.8379E+01
                  YZ=  9.1775E-06              ZZ= -3.3084E+01
      In traceless form (debye*angstrom)
                  XX=  3.6137E+00              XY= -1.9305E-04              XZ=  2.2753E-04              YY=  1.7213E+00
                  YZ=  1.3766E-05              ZZ= -5.3350E+00
--
 
 
      Input file to MOLDEN was generated!
 
 ###############################################################################
 ###############################################################################
 ###                                                                         ###
 ###                                                                         ###
 ###    WARNING: RunFile label nBas                                          ###
 ###    was used       74 times                                              ###
 ###                                                                         ###
 ###                                                                         ###
 ###############################################################################
 ###############################################################################
--- Stop Module: scf at Fri Jul 17 20:31:15 2026 /rc=_RC_ALL_IS_WELL_ ---
*** files: c5h6_project.scf.molden c5h6_project.ScfOrb c5h6_project.scf.h5 xmldump
    saved to directory /vscratch/grp-cyberwksp21/sbakenhaster/wed_7_8/openmolcas_pyspawn/Tutorials_OpenMolcas/03_S1_Optimization_CASPT2/c5h6_project
--- Module scf spent 3 seconds ---

--- Start Module: rasscf at Fri Jul 17 20:31:15 2026 ---
 
()()()()()()()()()()()()()()()()()()()()()()()()()()()()()()()()()()()()()()()()()()()()()()()()()()

                                              &RASSCF

                       only a single process is used, running in SERIAL mode
                       available to each process: 2.0 GB of memory, 1 thread?
                                            pid: 2472781
()()()()()()()()()()()()()()()()()()()()()()()()()()()()()()()()()()()()()()()()()()()()()()()()()()
 
 
      Header of the ONEINT file:
      --------------------------
      
      Integrals generated by Gateway/Seward, Fri Jul 17 20:31:11 2026
 
 
      OrdInt status: non-squared
 
 
      Cartesian coordinates in angstrom:
      -----------------------------------------------------
      No.  Label        X            Y            Z        
      -----------------------------------------------------
       1   C1         0.27678843  -1.17714127   0.00001682
       2   C2        -0.99691753  -0.73491260  -0.00001492
       3   C3        -0.99685191   0.73500452  -0.00001183
       4   C4         0.27689328   1.17711896   0.00002146
       5   C5         1.20935334  -0.00005264   0.00005408
       6   H6         0.60472530  -2.21448948   0.00002231
       7   H7        -1.89244294  -1.35430518  -0.00003637
       8   H8        -1.89232267   1.35447612  -0.00003089
       9   H9         0.60492410   2.21443729   0.00003107
      10   H10        1.86943693  -0.00008335   0.88297181
      11   H11        1.86954997  -0.00007983  -0.88277600
      -----------------------------------------------------
      Nuclear repulsion energy =  156.53464132
 
++    Wave function specifications:
      -----------------------------
 
      Number of closed shell electrons          32
      Number of electrons in active shells       2
      Max number of holes in RAS1 space          0
      Max nr of electrons in RAS3 space          0
      Number of inactive orbitals               16
      Number of active orbitals                  2
      Number of secondary orbitals              69
      Spin quantum number                      0.0
      State symmetry                             1
--
 
++    Orbital specifications:
      -----------------------
 
      Symmetry species                           1
                                                 a
      Frozen orbitals                            0
      Inactive orbitals                         16
      Active orbitals                            2
      RAS1 orbitals                              0
      RAS2 orbitals                              2
      RAS3 orbitals                              0
      Secondary orbitals                        69
      Deleted orbitals                           0
      Number of basis functions                 87
--
 
++    CI expansion specifications:
      ----------------------------
 
      Number of CSFs                             3
      Number of spin combinations                3
      Number of determinants                     4
      Number of root(s) required                 3
      Root chosen for geometry opt.              3
      CI roots used                              1     2     3
      weights                                0.333 0.333 0.333
      highest root included in the CI            3
      max. size of the explicit Hamiltonian      3
--
 
++    Optimization specifications:
      ----------------------------
 
      RASSCF algorithm: LK RI/DF
      Maximum number of macro iterations       200
      Maximum number of SX iterations          100
      Threshold for RASSCF energy            1.000E-08
      Threshold for max MO rotation          1.000E-01
      Threshold for max BLB element          1.000E-04
      Level shift parameter                  5.000E-01
      Make Quasi-Newton update
--
 
      Orbitals from runfile: scf orbitals
      The MO-coefficients are taken from scf orbitals on runfile
 
      Total molecular charge    2.00
 
      ************************************************************************************************************************
      *                                                                                                                      *
      *                                            Wave function control section                                             *
      *                                                                                                                      *
      ************************************************************************************************************************
 
 
                                         RASSCF iterations: Energy and convergence statistics
                                         ----------------------------------------------------
 
      Iter CI   SX   CI       RASSCF       Energy    max ROT     max BLB   max BLB  Level Ln srch  Step   QN   Walltime
          iter iter root      energy       change     param      element    value   shift minimum  type update hh:mm:ss
 Nr of preliminary CI iterations:   1
        1   1    7    0  -191.72765328    0.00E+00  -7.48E-02   13  23 1 -1.69E-01*  0.24   0.00    SX    NO    0:00:00
        2   1    6    0  -191.83789069   -1.10E-01* -2.16E-02   17  33 1  2.56E-02*  0.21   0.00    SX    NO    0:00:00
        3   1    5    0  -191.84396109   -6.07E-03* -1.52E-02   13  23 1 -1.25E-02*  0.22   0.00    SX    NO    0:00:00
        4   1    5    0  -191.84474193   -7.81E-04*  4.73E-03   13  23 1 -3.46E-03*  0.22   0.00    SX    NO    0:00:00
        5   1    5    0  -191.84487165   -1.30E-04*  2.69E-03   17  19 1  1.74E-03*  0.22   1.57    LS   YES    0:00:00
        6   1    5    0  -191.84489156   -1.99E-05* -2.74E-03   17  19 1  1.20E-03*  0.22   1.01    QN   YES    0:00:00
        7   1    4    0  -191.84490223   -1.07E-05* -5.74E-04   18  21 1 -4.54E-04*  0.22   0.91    QN   YES    0:00:00
        8   1    4    0  -191.84490314   -9.11E-07* -3.23E-04   18  21 1 -2.16E-04*  0.22   1.56    LS   YES    0:00:00
        9   1    4    0  -191.84490328   -1.36E-07* -2.55E-04   12  17 1 -1.23E-04*  0.22   1.00    QN   YES    0:00:00
       10   1    4    0  -191.84490340   -1.19E-07*  2.03E-04   12  17 1 -6.95E-05   0.22   1.42    QN   YES    0:00:00
       11   1    3    0  -191.84490343   -3.17E-08* -1.02E-04   12  17 1 -2.49E-05   0.22   1.30    QN   YES    0:00:00
       12   1    3    0  -191.84490344   -6.94E-09  -4.51E-05   12  19 1 -1.35E-05   0.22   1.42    QN   YES    0:00:00
      Convergence after 12 iterations
       13   1    3    0  -191.84490344   -1.57E-09  -4.51E-05   16  27 1 -4.01E-06   0.22   1.42    QN   YES    0:00:00
 
      ************************************************************************************************************************
                                                      Wave function printout:
                       occupation of active orbitals, and spin coupling of open shells (u,d: Spin up or down)
      ************************************************************************************************************************
 
      Note: transformation to natural orbitals
      has been made, which may change the order of the CSFs.
 
      printout of CI-coefficients larger than  0.05 for root  1
      energy=    -191.978931
      conf/sym  11     Coeff  Weight
             1  20   0.71653 0.51341
             2  ud   0.69743 0.48641
 
      printout of CI-coefficients larger than  0.05 for root  2
      energy=    -191.826067
      conf/sym  11     Coeff  Weight
             1  20  -0.56840 0.32307
             2  ud   0.59486 0.35385
             3  02   0.56840 0.32307
 
      printout of CI-coefficients larger than  0.05 for root  3
      energy=    -191.729713
      conf/sym  11     Coeff  Weight
             1  20   0.40437 0.16351
             2  ud  -0.39967 0.15974
             3  02   0.82265 0.67675
 
      Natural orbitals and occupation numbers for root  1
      sym 1:   1.862789   0.137211
 
      Natural orbitals and occupation numbers for root  2
      sym 1:   0.999999   1.000001
 
      Natural orbitals and occupation numbers for root  3
      sym 1:   0.137211   1.862789
 
      ************************************************************************************************************************
      *                                                                                                                      *
      *                                                    Final results                                                     *
      *                                                                                                                      *
      ************************************************************************************************************************
 
 
++    Final optimization conditions:
      ------------------------------
 
      Average CI energy                            -191.84490344
      RASSCF energy for state  3                   -191.72971269
      Super-CI energy                                -0.00000000
      RASSCF energy change                           -0.00000000
      Max change in MO coefficients              -2.045E-05
      Max non-diagonal density matrix element    -4.512E-05
      Maximum BLB matrix element                 -4.011E-06
      (orbital pair  16,  27 in symmetry   1)
      Norm of electronic gradient            1.755E-01
--
 
 
      Final state energy(ies):
      ------------------------
 
::    RASSCF root number  1 Total energy:   -191.97893081
::    RASSCF root number  2 Total energy:   -191.82606681
::    RASSCF root number  3 Total energy:   -191.72971269
 
++    Molecular orbitals:
      -------------------
 
      Pseudonatural active orbitals and approximate occupation numbers
 
 
 
 
      Molecular orbitals for symmetry species 1: a  
 
 
      Orbital                 1         2         3         4         5         6         7         8         9        10
      Energy           -11.7725  -11.7717  -11.7610  -11.7609  -11.7105   -1.6711   -1.4750   -1.4452   -1.2431   -1.2086
      Occ. No.           2.0000    2.0000    2.0000    2.0000    2.0000    2.0000    2.0000    2.0000    2.0000    2.0000
 
     1 C1     1s         0.0442   -0.0486    0.7047   -0.7004   -0.0074   -0.0971    0.1261   -0.0345    0.0863    0.0702
     2 C1     2s         0.0010   -0.0013    0.0195   -0.0193   -0.0001    0.1916   -0.2594    0.0688   -0.1819   -0.1450
     3 C1     *s         0.0029   -0.0040   -0.0093    0.0108    0.0047    0.0985   -0.2054    0.0581   -0.1933   -0.1717
     4 C1     2px        0.0001   -0.0001   -0.0005    0.0005    0.0001   -0.0496    0.0919    0.1376    0.0893   -0.1966
     5 C1     *px       -0.0011    0.0014    0.0011   -0.0009    0.0012   -0.0062    0.0120    0.0127    0.0123   -0.0531
     6 C1     2py       -0.0001    0.0001    0.0006   -0.0006    0.0000    0.0791   -0.0137    0.0440    0.1080    0.0422
     7 C1     *py        0.0010   -0.0011   -0.0019    0.0026    0.0018    0.0122   -0.0042    0.0055    0.0452    0.0322
     8 C1     2pz        0.0000   -0.0000   -0.0000    0.0000    0.0000   -0.0000    0.0000    0.0000    0.0000   -0.0000
     9 C1     *pz       -0.0000    0.0000    0.0000    0.0000    0.0000   -0.0000    0.0000    0.0000    0.0000   -0.0000
    10 C1     *200      -0.0002    0.0003   -0.0005    0.0005   -0.0002    0.0050   -0.0075   -0.0023   -0.0017    0.0042
    11 C1     *110       0.0000   -0.0001   -0.0002    0.0002   -0.0002   -0.0037    0.0072    0.0138    0.0110   -0.0030
    12 C1     *101      -0.0000    0.0000    0.0000   -0.0000   -0.0000    0.0000   -0.0000    0.0000   -0.0000   -0.0000
    13 C1     *020      -0.0001    0.0002   -0.0007    0.0006   -0.0002    0.0056   -0.0026    0.0070   -0.0040   -0.0106
    14 C1     *011      -0.0000   -0.0000   -0.0000    0.0000   -0.0000    0.0000    0.0000    0.0000    0.0000   -0.0000
    15 C1     *002      -0.0001    0.0001   -0.0010    0.0010   -0.0001   -0.0061    0.0062   -0.0015    0.0040    0.0028
    16 C2     1s         0.7025   -0.7025   -0.0492    0.0445    0.0002   -0.1060    0.0933    0.0980   -0.0409   -0.0873
    17 C2     2s         0.0195   -0.0194   -0.0013    0.0015   -0.0002    0.2114   -0.1956   -0.2034    0.0868    0.1829
    18 C2     *s        -0.0063    0.0132    0.0049   -0.0041   -0.0001    0.1146   -0.1287   -0.1674    0.1026    0.2042
    19 C2     2px        0.0006   -0.0007   -0.0003    0.0002   -0.0000    0.0862   -0.1042    0.0256   -0.1825   -0.0646
    20 C2     *px       -0.0014    0.0027    0.0015   -0.0019    0.0000    0.0135    0.0070    0.0022   -0.0531   -0.0488
    21 C2     2py        0.0003   -0.0005    0.0000    0.0001    0.0000    0.0483    0.0992   -0.0631    0.1742   -0.1135
    22 C2     *py       -0.0001    0.0026    0.0001    0.0000   -0.0001    0.0108    0.0191   -0.0079    0.0338   -0.0518
    23 C2     2pz        0.0000   -0.0000   -0.0000    0.0000   -0.0000    0.0000   -0.0000    0.0000   -0.0000   -0.0000
    24 C2     *pz       -0.0000    0.0000    0.0000   -0.0000    0.0000    0.0000    0.0000   -0.0000   -0.0000   -0.0000
    25 C2     *200      -0.0007    0.0004   -0.0002    0.0002    0.0001    0.0064   -0.0105   -0.0008   -0.0045    0.0068
    26 C2     *110      -0.0000   -0.0000    0.0000   -0.0001    0.0000    0.0022    0.0053   -0.0029    0.0097    0.0100
    27 C2     *101       0.0000   -0.0000   -0.0000    0.0000    0.0000    0.0000   -0.0000   -0.0000   -0.0000    0.0000
    28 C2     *020      -0.0010    0.0004   -0.0002    0.0000    0.0000    0.0054    0.0050   -0.0087    0.0096   -0.0015
    29 C2     *011      -0.0000   -0.0000   -0.0000   -0.0000    0.0000    0.0000    0.0000   -0.0000    0.0000    0.0000
    30 C2     *002      -0.0011    0.0010    0.0000   -0.0000   -0.0000   -0.0065    0.0042    0.0048   -0.0014   -0.0034
    31 C3     1s         0.7025    0.7025    0.0489    0.0448    0.0002   -0.1060   -0.0933    0.0980   -0.0409    0.0873
    32 C3     2s         0.0195    0.0194    0.0013    0.0015   -0.0002    0.2114    0.1956   -0.2034    0.0868   -0.1829
    33 C3     *s        -0.0063   -0.0132   -0.0049   -0.0042   -0.0001    0.1146    0.1287   -0.1674    0.1026   -0.2042
    34 C3     2px        0.0006    0.0007    0.0003    0.0002   -0.0000    0.0862    0.1042    0.0256   -0.1826    0.0645
    35 C3     *px       -0.0014   -0.0027   -0.0015   -0.0019    0.0000    0.0135   -0.0070    0.0022   -0.0531    0.0488
    36 C3     2py       -0.0003   -0.0005    0.0000   -0.0001   -0.0000   -0.0483    0.0992    0.0631   -0.1742   -0.1135
    37 C3     *py        0.0001    0.0026    0.0001   -0.0000    0.0001   -0.0108    0.0191    0.0079   -0.0338   -0.0518
    38 C3     2pz        0.0000    0.0000    0.0000    0.0000   -0.0000    0.0000    0.0000    0.0000   -0.0000    0.0000
    39 C3     *pz       -0.0000   -0.0000   -0.0000   -0.0000    0.0000    0.0000   -0.0000   -0.0000   -0.0000    0.0000
    40 C3     *200      -0.0007   -0.0004    0.0002    0.0002    0.0001    0.0064    0.0105   -0.0008   -0.0045   -0.0068
    41 C3     *110       0.0000   -0.0000    0.0000    0.0001   -0.0000   -0.0022    0.0053    0.0029   -0.0097    0.0100
    42 C3     *101       0.0000    0.0000    0.0000    0.0000    0.0000    0.0000    0.0000   -0.0000   -0.0000   -0.0000
    43 C3     *020      -0.0010   -0.0004    0.0002    0.0000    0.0000    0.0054   -0.0050   -0.0087    0.0096    0.0015
    44 C3     *011       0.0000    0.0000    0.0000    0.0000   -0.0000   -0.0000    0.0000    0.0000   -0.0000    0.0000
    45 C3     *002      -0.0011   -0.0010   -0.0000   -0.0000   -0.0000   -0.0065   -0.0042    0.0048   -0.0014    0.0034
    46 C4     1s         0.0442    0.0486   -0.7001   -0.7050   -0.0074   -0.0971   -0.1261   -0.0345    0.0863   -0.0702
    47 C4     2s         0.0010    0.0013   -0.0193   -0.0194   -0.0001    0.1916    0.2594    0.0688   -0.1819    0.1450
    48 C4     *s         0.0029    0.0040    0.0092    0.0109    0.0047    0.0985    0.2054    0.0581   -0.1933    0.1717
[...]
BVATP    1  Mu1.0001  Se1.033 Se1.019               1.20179560      0.03175821     -0.02573617     -0.00081733
BJATP    1  Mu1.0001  In1.016 Se1.020 Se1.019       1.03458121      0.05478636     -0.04896610     -0.00268267
BJATM    1  Mu1.0001  In1.015 Se1.028 Se1.019       1.22015357     -0.04373456      0.03464148     -0.00151503
BJATM    1  Mu1.0001  In1.014 Se1.028 Se1.020       1.35225455      0.03683135     -0.02625325     -0.00096694
BJAIP    1  Se1.019 In1.016 Se1.019 In1.016         1.26796150      0.03970550     -0.03051877     -0.00121176
--
 
   (Skipping property calculation,
    use PROP keyword to activate)
--
 
  Total CASPT2 energies:
 
  State-specific CASPT2 energies obtained using
  rotated states do not have a well-defined physical
  meaning, however they can be extracted from the
  diagonal of the effective Hamiltonian.
 
++ Multi-State CASPT2 section:
********************************************************************************
  MULTI-STATE CASPT2 SECTION
--------------------------------------------------------------------------------
 
  Output diagonal energies have been shifted. Add    192.000000000000     
 
  Effective Hamiltonian matrix (Symmetric):
 
                1               2               3
   1      -384.55846796
   2        -0.00000001   -384.52353860
   3        -0.01562697     -0.00000002   -384.44244570
 
       Total XMS-CASPT2 energies:
::    XMS-CASPT2 Root  1     Total energy:   -192.56053589
::    XMS-CASPT2 Root  2     Total energy:   -192.52353860
::    XMS-CASPT2 Root  3     Total energy:   -192.44037776
 
       Eigenvectors:
            0.99135762     -0.00000042     -0.13118718
            0.00000039      1.00000000     -0.00000025
            0.13118718      0.00000020      0.99135762
 
       In terms of the input states:
            0.99830163     -0.00000088      0.05825688
            0.00000090      1.00000000     -0.00000045
           -0.05825688      0.00000050      0.99830163
 
--
 
  THE ORIGINAL CI ARRAYS ARE NOW MIXED AS LINEAR
  COMBINATIONS, GIVEN BY THE EIGENVECTORS.
  A NEW JOBIPH FILE NAMED 'JOBMIX' IS PREPARED.
********************************************************************************
 
++ Mixed CI coefficients:
  The CI coefficients for the MIXED state nr.   1
--------------------------------------------------------------------------------
 CI COEFFICIENTS LARGER THAN  5.00E-02
  Occupation of active orbitals, and spin coupling
  of open shells. (u,d: Spin up or down).
  SGUGA info is (Midvert:IsyUp:UpperWalk/LowerWalk)
        Conf  SGUGA info        Occupation    Coefficient         Weight
           1  ( 1:1:   1/   1)   20              0.095148       0.009053
           2  ( 2:1:   1/   1)   ud              0.279845       0.078313
           3  ( 3:1:   1/   1)   02             -0.955319       0.912634
 
  The CI coefficients for the MIXED state nr.   2
--------------------------------------------------------------------------------
 CI COEFFICIENTS LARGER THAN  5.00E-02
  Occupation of active orbitals, and spin coupling
  of open shells. (u,d: Spin up or down).
  SGUGA info is (Midvert:IsyUp:UpperWalk/LowerWalk)
        Conf  SGUGA info        Occupation    Coefficient         Weight
           1  ( 1:1:   1/   1)   20             -0.249295       0.062148
           2  ( 2:1:   1/   1)   ud              0.935791       0.875704
           3  ( 3:1:   1/   1)   02              0.249295       0.062148
 
  The CI coefficients for the MIXED state nr.   3
--------------------------------------------------------------------------------
 CI COEFFICIENTS LARGER THAN  5.00E-02
  Occupation of active orbitals, and spin coupling
  of open shells. (u,d: Spin up or down).
  SGUGA info is (Midvert:IsyUp:UpperWalk/LowerWalk)
        Conf  SGUGA info        Occupation    Coefficient         Weight
           1  ( 1:1:   1/   1)   20              0.963742       0.928799
           2  ( 2:1:   1/   1)   ud              0.214436       0.045983
           3  ( 3:1:   1/   1)   02              0.158803       0.025218
 
--
 
--- Stop Module: last_energy at Fri Jul 17 20:33:34 2026 /rc=_RC_ALL_IS_WELL_ ---
*** files: c5h6_project.rasscf.molden c5h6_project.rasscf.molden.1 c5h6_project.rasscf.molden.2 c5h6_project.rasscf.molden.3 c5h6_project.RasOrb c5h6_project.RasOrb.1
           c5h6_project.RasOrb.2 c5h6_project.RasOrb.3 c5h6_project.SpdOrb.1 c5h6_project.SpdOrb.2 c5h6_project.SpdOrb.3 xmldump
    saved to directory /vscratch/grp-cyberwksp21/sbakenhaster/wed_7_8/openmolcas_pyspawn/Tutorials_OpenMolcas/03_S1_Optimization_CASPT2/c5h6_project
--- Module last_energy spent 7 seconds ---

>>> END DO

--- Start Module: rassi at Fri Jul 17 20:33:35 2026 ---
 
()()()()()()()()()()()()()()()()()()()()()()()()()()()()()()()()()()()()()()()()()()()()()()()()()()

                                               &RASSI

                       only a single process is used, running in SERIAL mode
                       available to each process: 2.0 GB of memory, 1 thread?
                                            pid: 2473031
()()()()()()()()()()()()()()()()()()()()()()()()()()()()()()()()()()()()()()()()()()()()()()()()()()
 
 
      ********************************************************************************
      *                                                                              *
      *                             General data section                             *
      *                                                                              *
      ********************************************************************************
 
   Specific data for JOBIPH file JOB001
   -------------------------------------
 
   Header from SEWARD:
                                                                               
        Integrals generated by Gateway/Seward, Fri Jul 17 20:33:09 2026        
 
   CASSCF title (first line only):
       cyclopent SA-3-CAS(2,2)SCF                                              
 
  STATE IRREP:                1
  SPIN MULTIPLICITY:          1
  ACTIVE ELECTRONS:           2
  MAX RAS1 HOLES:             0
  MAX RAS3 ELECTRONS:         0
  NR OF CONFIG:               3
 ###############################################################################
 ###############################################################################
 ###                                                                         ###
 ###                                                                         ###
 ###    WARNING: EJOB used when HEFF is available, possible                  ###
 ###    extra interaction between states is ignored!                         ###
 ###                                                                         ###
 ###                                                                         ###
 ###############################################################################
 ###############################################################################
 
   The following data are common to all the states:
   ------------------------------------------------
   (note: frozen counts as inactive, deleted as secondary)
 
      Nr of irreps: 1
 
                 Total     No./Irrep
      Irrep                  1
                             a
 
      INACTIVE      16      16
      ACTIVE         2       2
      SECONDARY     69      69
      BASIS         87      87
 
      RAS1           0       0
      RAS2           2       2
      RAS3           0       0
 
        MATRIX ELEMENTS WILL BE COMPUTED FOR THE FOLLOWING ONE-ELECTRON OPERATOR
 S, UNLESS ZERO BY SYMMETRY.
   (Herm=Hermitian, Anti=Antihermitian, Sing=Singlet operator, Trip=Triplet oper
 ator)
     MLTPL  0   1 (HERMSING)     MLTPL  1   1 (HERMSING)     MLTPL  1   2 (HERMSING)
     MLTPL  1   3 (HERMSING)     MLTPL  2   1 (HERMSING)     MLTPL  2   2 (HERMSING)
     MLTPL  2   3 (HERMSING)     MLTPL  2   4 (HERMSING)     MLTPL  2   5 (HERMSING)
     MLTPL  2   6 (HERMSING)     VELOCITY   1 (ANTISING)     VELOCITY   2 (ANTISING)
     VELOCITY   3 (ANTISING)     ANGMOM     1 (ANTISING)     ANGMOM     2 (ANTISING)
     ANGMOM     3 (ANTISING)     MLTPV  2   1 (ANTISING)     MLTPV  2   2 (ANTISING)
     MLTPV  2   3 (ANTISING)     MLTPV  2   4 (ANTISING)     MLTPV  2   5 (ANTISING)
     MLTPV  2   6 (ANTISING)
 
       EIGENSTATES OF A SPIN-FREE HAMILTONIAN WILL BE COMPUTED BASED ON:
 
  a Hamiltonian matrix assumed to be diagonal with energies read from the wavefu
 nction file(s).
 
  Nr of states:                     3
 
   State:        1   2   3
  JobIph:        1   1   1
 Root nr:        1   2   3
  READCI called for state                      1
  This is on JobIph nr.                     1
  JobIph file name:
 JOB001                                                                         
                                                  
  It is root nr.                     1
  Its length NCI=                     3
  Its symmetry  =                     1
  Spin multiplic=                     1
  Occupation of active orbitals, and spin coupling
  of open shells. (u,d: Spin up or down).
  SGUGA info is (Midvert:IsyUp:UpperWalk/LowerWalk)
   Conf   SGUGA info  Occupation       Coef       Weight                        
  
      1 ( 1:1:  1/  1)    20          0.62798      0.39436
      2 ( 2:1:  1/  1)    ud         -0.74277      0.55171
      3 ( 3:1:  1/  1)    02          0.23222      0.05392
 
 *******************************************************************************
 *
  READCI called for state                      2
  This is on JobIph nr.                     1
  JobIph file name:
 JOB001                                                                         
                                                  
  It is root nr.                     2
  Its length NCI=                     3
  Its symmetry  =                     1
  Spin multiplic=                     1
  Occupation of active orbitals, and spin coupling
  of open shells. (u,d: Spin up or down).
  SGUGA info is (Midvert:IsyUp:UpperWalk/LowerWalk)
   Conf   SGUGA info  Occupation       Coef       Weight                        
  
      1 ( 1:1:  1/  1)    20         -0.66170      0.43785
      2 ( 2:1:  1/  1)    ud         -0.35257      0.12431
      3 ( 3:1:  1/  1)    02          0.66170      0.43785
 
 *******************************************************************************
 *
  READCI called for state                      3
  This is on JobIph nr.                     1
  JobIph file name:
 JOB001                                                                         
                                                  
  It is root nr.                     3
  Its length NCI=                     3
  Its symmetry  =                     1
  Spin multiplic=                     1
  Occupation of active orbitals, and spin coupling
  of open shells. (u,d: Spin up or down).
  SGUGA info is (Midvert:IsyUp:UpperWalk/LowerWalk)
   Conf   SGUGA info  Occupation       Coef       Weight                        
  
      1 ( 1:1:  1/  1)    20          0.40962      0.16779
      2 ( 2:1:  1/  1)    ud          0.56919      0.32398
      3 ( 3:1:  1/  1)    02          0.71290      0.50823
 
 *******************************************************************************
 *
  READCI called for state                      1
  This is on JobIph nr.                     1
  JobIph file name:
 JOB001                                                                         
                                                  
  It is root nr.                     1
  Its length NCI=                     3
  Its symmetry  =                     1
  Spin multiplic=                     1
  Occupation of active orbitals, and spin coupling
  of open shells. (u,d: Spin up or down).
  SGUGA info is (Midvert:IsyUp:UpperWalk/LowerWalk)
   Conf   SGUGA info  Occupation       Coef       Weight                        
  
      1 ( 1:1:  1/  1)    20          0.62798      0.39436
      2 ( 2:1:  1/  1)    ud         -0.74277      0.55171
      3 ( 3:1:  1/  1)    02          0.23222      0.05392
 
 *******************************************************************************
 *
  READCI called for state                      2
  This is on JobIph nr.                     1
  JobIph file name:
 JOB001                                                                         
                                                  
  It is root nr.                     2
  Its length NCI=                     3
  Its symmetry  =                     1
  Spin multiplic=                     1
  Occupation of active orbitals, and spin coupling
  of open shells. (u,d: Spin up or down).
  SGUGA info is (Midvert:IsyUp:UpperWalk/LowerWalk)
   Conf   SGUGA info  Occupation       Coef       Weight                        
  
      1 ( 1:1:  1/  1)    20         -0.66170      0.43785
      2 ( 2:1:  1/  1)    ud         -0.35257      0.12431
      3 ( 3:1:  1/  1)    02          0.66170      0.43785
 
 *******************************************************************************
 *
  READCI called for state                      3
  This is on JobIph nr.                     1
  JobIph file name:
 JOB001                                                                         
                                                  
  It is root nr.                     3
  Its length NCI=                     3
  Its symmetry  =                     1
  Spin multiplic=                     1
  Occupation of active orbitals, and spin coupling
  of open shells. (u,d: Spin up or down).
  SGUGA info is (Midvert:IsyUp:UpperWalk/LowerWalk)
   Conf   SGUGA info  Occupation       Coef       Weight                        
  
      1 ( 1:1:  1/  1)    20          0.40962      0.16779
      2 ( 2:1:  1/  1)    ud          0.56919      0.32398
      3 ( 3:1:  1/  1)    02          0.71290      0.50823
 
 *******************************************************************************
 *
 
  HAMILTONIAN MATRIX FOR THE ORIGINAL STATES:
 
  Diagonal, with energies
   -192.56056205   -192.52353954   -192.44035997
 
      OVERLAP MATRIX FOR THE ORIGINAL STATES:
 
  Diagonal, with elements
      1.00000000      1.00000000      1.00000000
 
::    RASSI State    1     Total energy:    -192.56056205288638
::    RASSI State    2     Total energy:    -192.52353954371523
::    RASSI State    3     Total energy:    -192.44035997053328
 
 
 
      ****************************************************************************************************
      *                                                                                                  *
      *                                         Spin-free section                                        *
      *                                                                                                  *
      *                 Note: index according to input order, order according to energy.                 *
      *                                                                                                  *
      ****************************************************************************************************
 
 
 
  SPIN-FREE ENERGIES:
  (Shifted by EMIN (a.u.) =       -192.5605620529)
 
 SF State       Relative EMIN(au)   Rel lowest level(eV)    D:o, cm**(-1)
 
     1             0.0000000000        0.0000000000              0.0000
     2             0.0370225092        1.0074337969           8125.5016
     3             0.1202020824        3.2708652905          26381.3077
 
++ Dipole transition strengths (spin-free states):
   -----------------------------------------------
     for osc. strength at least  1.00000000E-05
 
      From   To        Osc. strength     Einstein coefficients Ax, Ay, Az (sec-1)    Total A (sec-1)
     -----------------------------------------------------------------------------------------------
         1    2       2.62286007E-02  2.39053060E-03  1.15509500E+06  4.73046573E-06  1.15509500E+06
         1    3       1.20101141E-04  5.57547664E+04  3.50238653E-06  2.14170706E-05  5.57547664E+04
         2    3       1.00350456E-01  4.64788540E-02  2.23081527E+07  9.13589486E-05  2.23081527E+07
     -----------------------------------------------------------------------------------------------
--
 
++ Dipole transition vectors (spin-free states):
   ---------------------------------------------
     for vector sizes at least  1.00000000E-04
 
      From   To                   Dx              Dy              Dz  Total D (a.u.)
     -------------------------------------------------------------------------------
         1    2       4.68962987E-05  1.03086137E+00  2.08613959E-06  1.03086137E+00
         1    3       3.87135681E-02  3.06834534E-07  7.58756168E-07  3.87135682E-02
         2    3       6.14034626E-05  1.34523129E+00  2.72232959E-06  1.34523129E+00
     -----------------------------------------------------------------------------------------------
--
 
++ Velocity transition strengths (spin-free states):
   -------------------------------------------------
     for osc. strength at least  1.00000000E-05
 
      From   To        Osc. strength     Einstein coefficients Ax, Ay, Az (sec-1)    Total A (sec-1)
     -----------------------------------------------------------------------------------------------
         1    2       1.00380932E-01  9.77861786E-03  4.42072809E+06  1.77712686E-05  4.42072810E+06
         2    3       2.62365661E-02  1.29013430E-02  5.83245303E+06  2.34463842E-05  5.83245304E+06
     -----------------------------------------------------------------------------------------------
--
 
++ Length and velocity gauge comparison (spin-free states):
   --------------------------------------------------------
 
 --------------------------------------------------
 A comparison between the dipole oscillator strengths in
 length and velocity gauge will be performed
 
     All dipole oscillator differences above the tolerance of   1.00000000E-01  will be printed
 
 Due to basis set deficiency these oscillator may be problematic
 
 The tolerance is defined as ABS(1-O_l/O_v)
 O_l : dipole oscillator strength in length gauge
 O_p : dipole oscillator strength in velocity gauge
 --------------------------------------------------
 
  Problematic transitions have been found
 
      From   To       Difference (%) Osc. st. (len.) Osc. st. (vel.)
     ---------------------------------------------------------------
         1    2            73.870933  2.62286007E-02  1.00380932E-01
         1    3      ---------------  1.20101141E-04 below threshold
         2    3           282.483195  1.00350456E-01  2.62365661E-02
     ---------------------------------------------------------------
 
 Number of problematic transitions =                      3
 
--
 
 Electric-dipole - electric-octupole not included
 Electric-dipole - magnetic-quadrupole not included
 
 
      ****************************************************************************************************
      *                                                                                                  *
      *                                    Special properties section                                    *
      *                                                                                                  *
      ****************************************************************************************************
 
 
--- Stop Module: rassi at Fri Jul 17 20:33:35 2026 /rc=_RC_ALL_IS_WELL_ ---
*** files: c5h6_project.rassi.h5 xmldump
    saved to directory /vscratch/grp-cyberwksp21/sbakenhaster/wed_7_8/openmolcas_pyspawn/Tutorials_OpenMolcas/03_S1_Optimization_CASPT2/c5h6_project

.##################.
.# Happy landing! #.
.##################.

    Timing: Wall=142.52 User=97.63 System=17.99
