[Molden Format]
made by pyscf v[2.13.1]
[Atoms] (AU)
O   1   8     0.21099695469856     0.00000000000000     2.15462460678861
N   2   7    -0.44776862100326     0.00000000000000    -0.03589262653049
H   3   1     1.18163474748449     0.00000000000000    -1.17386889907833
[GTO]
1 0
 s    8 1.00
                 11720  0.00070964594651845
                  1759  0.0054672722921914
                 400.8   0.027823118610189
                 113.7    0.10474773971146
                 37.03    0.28292084635691
                 13.27    0.44849523869833
                 5.025    0.27081688521277
                 1.013    0.01545029160744
 s    8 1.00
                 11720  -0.00031444341168873
                  1759  -0.0024821376810179
                 400.8  -0.012316355381583
                 113.7  -0.050538917343672
                 37.03   -0.13938490331632
                 13.27   -0.32507749481778
                 5.025   -0.22984830758785
                 1.013     1.0953793467883
 s    1 1.00
                0.3023                   1
 s    1 1.00
               0.07896                   1
 p    3 1.00
                  17.7   0.062679166281506
                 3.854    0.33353656587936
                 1.046    0.74123964163973
 p    1 1.00
                0.2753                   1
 p    1 1.00
               0.06856                   1
 d    1 1.00
                 1.185                   1
 d    1 1.00
                 0.332                   1

2 0
 s    8 1.00
                  9046  0.00069961741342552
                  1357  0.0053860546299287
                 309.3   0.027391021189057
                 87.73    0.10315059198201
                 28.56    0.27857066331743
                 10.21    0.44829484945412
                 3.838    0.27808592839527
                0.7466   0.015431561233271
 s    8 1.00
                  9046  -0.00030499009595337
                  1357  -0.0024080263785077
                 309.3   -0.01194444872518
                 87.73  -0.048925992909017
                 28.56   -0.13447272472496
                 10.21   -0.31511257770011
                 3.838   -0.24285783254964
                0.7466     1.0943822068542
 s    1 1.00
                0.2248                   1
 s    1 1.00
               0.06124                   1
 p    3 1.00
                 13.55   0.058905676772132
                 2.917    0.32046110671427
                0.7973    0.75304206179207
 p    1 1.00
                0.2185                   1
 p    1 1.00
               0.05611                   1
 d    1 1.00
                 0.817                   1
 d    1 1.00
                  0.23                   1

3 0
 s    3 1.00
                 13.01   0.033498726389998
                 1.962    0.23480080117413
                0.4446     0.8136829578829
 s    1 1.00
                 0.122                   1
 s    1 1.00
               0.02974                   1
 p    1 1.00
                 0.727                   1
 p    1 1.00
                 0.141                   1

[5d]
[7f]
[9g]

[MO]
 Sym= A
 Ene=               0
 Spin= Alpha
 Occup=    0.90061
   1    -0.0022599454932728
   2    -0.012221565781563
   3    -0.027648247435247
   4    -0.025410527001173
   5       0.4734675805371
   6    -3.4788786385253e-17
   7    -0.069690857884832
   8      0.39133994722469
   9    9.2352766348816e-16
  10    -0.057937554119696
  11      0.11351500592511
  12    -3.7815000493727e-16
  13    -0.015381710646519
  14    -0.0023994141657571
  15    -0.00045835339317151
  16    1.0698880766768e-16
  17    -3.0719267036265e-05
  18    8.1540559510508e-17
  19    0.00043062876346053
  20    -0.0098011828940741
  21    -7.031009539206e-16
  22    -0.0024301731730829
  23    -3.5027668135098e-16
  24    -0.0010628066367213
  25      0.12583622285399
  26      0.29411243944199
  27      0.15486801564402
  28     -0.38157986094364
  29    5.8581086746304e-16
  30    -0.047589420896311
  31     -0.27927050204837
  32    -9.3577129588954e-16
  33    -0.013156583516225
  34    -0.067558257910236
  35    1.0036187525023e-15
  36    -0.0032849466577795
  37    -0.009698284813559
  38     0.024925800489187
  39    1.9473018856618e-17
  40    -0.011427454473172
  41    -2.8006619198324e-17
  42     0.011115721654504
  43    0.0064945892132427
  44    -6.9272167821073e-16
  45    -0.0073737484012279
  46    -2.3271383187992e-17
  47     -0.27972385023867
  48     -0.16119377853439
  49    -0.029773562862569
  50    0.0059654998762592
  51    1.0190553449175e-16
  52    -0.011115862833034
  53    -0.016297954387457
  54    -2.034195283239e-16
  55     0.025218520369276
 Sym= A
 Ene=               1
 Spin= Alpha
 Occup=    0.90061
   1    0.0034520099015694
   2     0.051231895064747
   3       0.1562250016182
   4      0.34851875256953
   5    0.0021589764183339
   6    7.7303991093108e-16
   7     0.063184935421741
   8    -0.011184844063454
   9    -2.7975114269093e-17
  10     0.024208929444207
  11    -0.061805873410289
  12    -2.7810852019423e-15
  13     0.012680648180283
  14    0.0076769440123066
  15    -0.0020243370717136
  16    -1.3263533249264e-16
  17    -0.0034189279208699
  18    -1.6936458279977e-16
  19     0.017277339414315
  20    0.0022401724118679
  21    8.8480609720558e-16
  22    -0.0032829817422451
  23    5.8437296961336e-16
  24     0.015212643045537
  25      0.13893266413334
  26      0.29012529195574
  27     -0.13055602517809
  28      0.13588265797877
  29    -4.7977639985015e-16
  30     -0.13066720046803
  31      0.12004635097096
  32    1.0806623284831e-15
  33     -0.15690724464639
  34    -0.0034179245022573
  35    -2.7402287835584e-16
  36     -0.23660157188718
  37    -0.0010505116212791
  38    0.0025299485343984
  39    -1.4631960246854e-17
  40    -0.00064649654458157
  41    5.5759899918798e-17
  42     -0.01146201757939
  43    -0.0054264747505353
  44    1.139570045629e-15
  45    0.00010159593439318
  46    -8.1144534141202e-17
  47    -0.042676383162653
  48     -0.33407478249373
  49     -0.99352731400781
  50    -0.022530621026738
  51    -1.2625882711402e-16
  52     0.010276526994087
  53    -0.049814101085236
  54    7.4312952920761e-16
  55    0.0029206392782903
 Sym= A
 Ene=               2
 Spin= Alpha
 Occup=    0.00206
   1    -0.0018721507673784
   2     0.076407670928207
   3      0.11634050790498
   4     0.008874211865569
   5      0.40430389908254
   6    3.266692206751e-15
   7     -0.17591865355819
   8      0.26801199955513
   9    3.129031495489e-15
  10     -0.12643467898907
  11     0.030296797137028
  12    -6.1791872465019e-17
  13     -0.01220186556776
  14    0.0060418781590743
  15    -0.010207032005369
  16    -1.0152176378129e-16
  17    -0.0013407903688061
  18    7.2603025806026e-17
  19    0.0041799781867917
  20    -0.010405490724059
  21    -8.2585378933135e-16
  22    0.0022835462270603
  23    -2.9807439883156e-16
  24    -0.0047102882918023
  25     -0.22208036814071
  26     -0.30378021221367
  27    -0.024345221208923
  28      0.34001205304883
  29    3.4098829595864e-15
  30      0.12596643813591
  31      0.14675041920791
  32    7.5755393363249e-16
  33     0.058192772090402
  34    0.0036957748106502
  35    5.4427715565162e-16
  36    0.0012526605521271
  37    -0.0041698114741286
  38     0.013767314710441
  39    4.1402814128139e-16
  40     0.014830996274733
  41    8.7367768243078e-17
  42    -0.0026100888850413
  43     -0.01879685461615
  44    -6.9787331301926e-16
  45    0.0025087547890065
  46    -8.4943272121088e-17
  47     0.073204563824225
  48    0.0016411948909806
  49    -0.0029427372254836
  50     0.004457393821937
  51    7.6893065570353e-17
  52    -0.0016949592817715
  53     0.001597024542771
  54    -7.7493914582747e-17
  55    0.0022371712496766
 Sym= A
 Ene=               3
 Spin= Alpha
 Occup=    0.00206
   1    -0.0022217107860333
   2      0.10443522113889
   3       0.7390828567837
   4     0.046237209586347
   5      0.12335429881375
   6    7.1853979959881e-15
   7      0.11472326062375
   8     0.034619205441644
   9    6.7908223650254e-15
  10     -0.20087372092793
  11     -0.30227450450065
  12    -1.306281132355e-15
  13     0.045801830662944
  14     0.028681281903008
  15    0.0034492263541351
  16    4.7098987304552e-16
  17    -0.012715750809532
  18    1.7237463436171e-17
  19      0.13484542347733
  20     0.044662567224007
  21    -8.7543289139183e-16
  22    -0.046694098308776
  23    2.2436544053602e-16
  24    -0.049842947413179
  25     -0.20127732169149
  26      -0.3962064978944
  27      0.21825823911129
  28     -0.01419139328439
  29    -2.2048947988277e-15
  30      0.30486399744079
  31    -0.024932650348195
  32    -3.4629253261164e-15
  33     -0.33790991373577
  34     -0.18693946069882
  35    -6.7758993471545e-15
  36     -0.72785739548391
  37    -0.026237697097072
  38      0.06630695687137
  39    6.4709056595324e-16
  40     0.028973371650203
  41    5.6151113528048e-16
  42     -0.17589572425744
  43    -0.094629353254286
  44    -1.9225601256972e-15
  45    -0.043267247581072
  46    -2.189054612165e-15
  47     0.032220724157282
  48    -0.065883738560422
  49     -0.23842121063376
  50    -0.0059370251139107
  51    -5.0596925267173e-16
  52    -0.023694107848228
  53    -0.064762304655999
  54    -6.5664578495786e-16
  55     -0.26057341610504
 Sym= A
 Ene=               4
 Spin= Alpha
 Occup=    0.00085
   1    6.8327523715176e-16
   2    -3.2962870314851e-15
   3    -2.0153028754555e-14
   4    -4.2019023368979e-14
   5    -6.0491618376087e-15
   6      0.44415817778863
   7    -8.6052109978426e-15
   8    -3.1824535887376e-15
   9      0.28890423260338
  10    6.3702496353406e-15
  11    1.2050813198445e-15
  12     0.029150741599089
  13    8.6635886532027e-15
  14    2.3588070121328e-16
  15    3.9292890833644e-16
  16     -0.02256212610173
  17    2.5007852351444e-17
  18    -5.1754144941746e-05
  19    -1.7455624759675e-15
  20    -2.9034702464179e-17
  21     -0.02943503444566
  22    -2.0213192123343e-16
  23     0.006487276290772
  24    -2.0682782902383e-16
  25    2.0297394613475e-15
  26    1.4502960389822e-14
  27    4.1480818986267e-14
  28    -2.0001204378684e-15
  29      0.41394783499149
  30    7.6204595738841e-15
  31    3.0117700314036e-15
  32      0.24226348444093
  33    1.6055578307952e-14
  34    6.4494581601862e-15
  35       0.0156004458897
  36    9.2971529307517e-15
  37    9.395424472334e-16
  38    6.6145539282924e-16
  39     0.040071537766653
  40    1.9001311333639e-16
  41     0.021963762771265
  42    3.1408283304239e-15
  43    3.6948689389169e-15
  44    0.0068532544089961
  45    1.1417834837336e-15
  46    0.0099473254918234
  47    -3.4982212439774e-15
  48    -2.3351589285487e-15
  49    -5.4608482348968e-15
  50    -1.6777440937625e-16
  51    0.0057529762894001
  52    -1.5510609196246e-16
  53    -1.7392152236322e-15
  54    -0.0047450282815954
  55    2.9264450656693e-16
 Sym= A
 Ene=               5
 Spin= Alpha
 Occup=    0.00085
   1    -6.481410999853e-16
   2    -2.9790877310852e-15
   3    -1.4295395805983e-15
   4    5.8214763919242e-14
   5    -1.3406815167829e-15
   6      0.42885475443067
   7    -2.892399597715e-15
   8    -2.3841659088787e-15
   9      0.38903003297856
  10    -7.8148583359551e-15
  11    1.1258541632837e-14
  12     0.029422532491261
  13    -1.3677002506103e-14
  14    -1.1575873432444e-15
  15    5.4269535165625e-16
  16    0.0090216206518654
  17    -1.0077174959333e-17
  18    -0.022804788404795
  19    -2.5363195421983e-16
  20    2.7616166540192e-16
  21    -0.015853878245075
  22    6.506950837657e-16
  23    -0.034624895356938
  24    2.412387024503e-15
  25    3.6091111485993e-15
  26    -2.8423957839188e-14
  27    -7.3535420642054e-14
  28    -3.0635290323285e-15
  29     -0.18403570300444
  30    -1.4568334530327e-16
  31    -9.2655508619976e-15
  32     -0.37743139580282
  33    -3.9062471940084e-15
  34    -1.8629454792334e-14
  35     -0.36140793639931
  36    8.9560024917773e-16
  37    1.474474981047e-15
  38    -1.4412914234782e-15
  39     0.079832789314451
  40    -9.0952892574508e-16
  41     0.021585057561707
  42    8.6086948801227e-16
  43    -3.706047272183e-16
  44     0.068655844827682
  45    -1.1193711085841e-15
  46     -0.13632219263508
  47    8.5835561994258e-15
  48    2.7756002039787e-14
  49    1.3200178481073e-14
  50    -6.7212670296862e-16
  51    -0.041314513172469
  52    1.5618999770561e-16
  53    -8.4186106031556e-15
  54     -0.19850726171627
  55    5.9207292396717e-15
 Sym= A
 Ene=               6
 Spin= Alpha
 Occup=    0.00043
   1    -0.0034156512954403
   2    -0.082484170913283
   3    -0.074258302032577
   4     0.018204043162667
   5      0.18656210542246
   6    5.4006598373215e-15
   7     0.086930040811491
   8      0.10245170197518
   9    3.8659932497817e-15
  10     0.051915700808924
  11    0.0040249310034397
  12    2.6467983589011e-16
  13    0.0011516392132588
  14    0.0050536137732417
  15    -0.0062807995480474
  16    -2.0080699235259e-16
  17    -0.0048682717877142
  18    -6.8698443892891e-18
  19    0.0039135335836841
  20    -0.0044294333368903
  21    -7.0229559109607e-16
  22    -0.0053311867390291
  23    6.426510797925e-17
  24    -0.020456102616739
  25      0.19191305570687
  26       0.2227920628806
  27    -0.0096704296097994
  28     0.063822367542373
  29    4.916084132136e-15
  30     -0.28860323127349
  31     0.017049573788979
  32    2.3633534013523e-15
  33     -0.10023509707923
  34    -0.0023810948014678
  35    -7.3643152101592e-17
  36    -0.0031329372289348
  37    -0.016002008301567
  38    -0.023776484850952
  39    4.6598833281961e-16
  40    0.0024118472332991
  41    2.1631802472784e-16
  42    -2.8617895863515e-05
  43    -0.0082263131121812
  44    -1.5552936518902e-16
  45    -0.0020919836645495
  46    -1.3753466319052e-16
  47      0.47464266158019
  48      0.11440590995953
  49    0.0020361954007862
  50    -0.019189891303287
  51    4.3208516434489e-18
  52     0.010404477884642
  53    0.0015992626625358
  54    -9.0977895853035e-17
  55    -0.00066233310593447
 Sym= A
 Ene=               7
 Spin= Alpha
 Occup=    0.00043
   1     0.012042461713308
   2     0.052561079052644
   3      0.05607753359994
   4     -0.20706117781665
   5     -0.03469473423177
   6    2.0760600368713e-15
   7      0.23190786106879
   8     -0.15053525431407
   9    2.1796444587834e-15
  10      0.18151519725987
  11     -0.37227972166766
  12    -4.6065686550998e-15
  13    0.0089273968145477
  14       0.0327117084895
  15    -0.0096255496441488
  16    4.1080998081287e-17
  17     -0.01968300880888
  18    -2.7945508617033e-16
  19      0.07610280409618
  20     0.014210837359229
  21    1.4530797025694e-15
  22    0.0038496888506391
  23    9.9094901331774e-17
  24     0.079996024770415
  25      0.31701364791576
  26       0.4520968298754
  27     -0.41411357336161
  28      0.18331758680004
  29    1.8185253397177e-15
  30     -0.13267270862858
  31    -0.00083791389497736
  32    8.0973240794762e-16
  33     0.080576824180606
  34      0.42982550792606
  35    -2.255952050337e-15
  36     -0.21791770992824
  37     -0.13279304356482
  38     0.089169268987382
  39    1.3831414428551e-17
  40    -0.031117734793432
  41    8.1175663106541e-16
  42     -0.14220223393037
  43      0.28058051519001
  44    2.7269302183682e-15
  45    -0.086829507044986
  46    -7.4800426090217e-16
  47     -0.78511697449401
  48      0.43895378209553
  49     0.049286193371281
  50     0.063642234710857
  51    -3.9885139404344e-16
  52     0.038575209192505
  53      0.49609099991294
  54    -3.1579571114488e-15
  55     -0.10199123540353
 Sym= A
 Ene=               8
 Spin= Alpha
 Occup=    0.00025
   1    -0.0095192486738889
   2    -0.054063969767548
   3     0.074969845894845
   4     0.026468168560081
   5    -0.050424988465941
   6    -1.6272460484397e-15
   7     -0.13448232826842
   8       0.2218989523697
   9    -7.6279333120236e-16
  10    -0.077288268725703
  11      0.19164586337446
  12    -5.8061945490902e-17
  13    -0.023017226448332
  14    -0.016680852482376
  15      0.03530716930153
  16    -3.0329771108672e-17
  17     0.015514474861707
  18    -4.0616826526579e-17
  19    -0.077348715221317
  20    0.0069777264109146
  21    -2.936192502378e-16
  22     0.017766061306933
  23    8.4917879322068e-17
  24     -0.12660515642996
  25     -0.47523074583692
  26    -0.029171745214185
  27    -0.034465016754995
  28     -0.31626546217207
  29    -9.021748258417e-16
  30      0.45950466898943
  31     -0.40485773426975
  32    -1.4605242033916e-15
  33    0.0014214544513371
  34     -0.16119593732843
  35    4.9340833484332e-16
  36     0.019980972468808
  37     0.091983616657301
  38     -0.11895107800369
  39    6.8627139902934e-17
  40    -0.034612553349276
  41    5.1818709154922e-17
  42    -0.065281476722774
  43     -0.11384300382639
  44    1.2685742825363e-16
  45     0.062653392536117
  46    -4.6709660936397e-16
  47      0.60731671295294
  48        0.265010118876
  49    -0.0069248590022676
  50      0.11387839535457
  51    2.6339225933558e-16
  52     -0.11861180866121
  53    -0.032056488632512
  54    1.3566781327844e-16
  55    -0.0041026955797626
 Sym= A
 Ene=               9
 Spin= Alpha
 Occup=    0.00025
   1    0.0058723727666089
   2     0.041678358545626
   3    0.0082815425051653
   4      0.16430486556679
   5      0.14500062159863
   6    -1.3180678032124e-17
   7    -0.075393722595734
   8      0.13238112997331
   9    -6.6576156933149e-16
  10    -0.055071613250124
  11      0.18581801651135
  12    1.5536117381866e-15
  13    -0.020232080853674
  14    -0.018471476562449
  15     0.017970544634922
  16    -1.8210688612597e-16
  17    0.0072745261553453
  18    6.9802001020946e-17
  19    -0.026486271208809
  20    0.0061998318867082
  21    -2.8599089850805e-16
  22    0.0017433413643192
  23    2.8404067733059e-17
  24     0.027682460136553
  25    -0.033941665529278
  26    -0.092572702135473
  27     -0.11097468219285
  28     -0.55674489076181
  29    -9.8323182680599e-16
  30      0.17454200897561
  31     -0.31098001058975
  32    5.0017043103149e-16
  33      0.04951975238446
  34     -0.11531196508013
  35    -9.9851023951697e-16
  36     0.048046713212597
  37     0.032211983233628
  38    -0.0074068319239006
  39    -1.8643210231919e-16
  40    0.00075648094894603
  41    -3.1531416659607e-16
  42     0.037518179306009
  43    -0.050193636621495
  44    6.735070630602e-17
  45     0.040288033274015
  46    5.374386794527e-16
  47     -0.27884157713084
  48     0.057825911458856
  49     -0.13685354847673
  50     0.083248986177634
  51    2.8137955148478e-16
  52    -0.077959573071873
  53    -0.034751908845982
  54    1.2980306106676e-15
  55     0.040591858875813
 Sym= A
 Ene=              10
 Spin= Alpha
 Occup=    0.00010
   1    -0.015737592191136
   2      0.25748409626946
   3      0.48855820190959
   4      0.19151496828487
   5    -0.00049025682906814
   6    7.2427825291086e-15
   7      0.39184491727305
   8     0.092257436120432
   9    5.852643622645e-15
  10      0.18989937154928
  11     0.052461002972428
  12    -1.0684236745114e-16
  13    -0.018310575187983
  14    -0.029799459654195
  15    -0.016681102004316
  16    -5.3138789613347e-16
  17     0.015761492049127
  18    1.5391822526624e-16
  19    -0.035974848125507
  20    -0.038707910740475
  21    -1.0346138326554e-15
  22     0.036321709589586
  23    3.2573559652907e-16
  24    -0.032629099405426
  25     -0.25685858527669
  26     -0.19673661173412
  27      -0.0593499325466
  28     -0.15454134287175
  29    8.0415775241913e-15
  30     -0.19964281691139
  31    -0.042891749742835
  32    4.2337833693222e-15
  33     -0.16290232335535
  34    -0.046082157243314
  35    9.8337982091528e-16
  36    -0.030940878989289
  37     0.037112328197484
  38    0.0020774382575908
  39    4.7055955529481e-16
  40    -0.044470244094322
  41    -5.6358063178753e-16
  42     0.026897173412421
  43    -0.027836635433235
  44    -4.6926306443791e-16
  45     -0.01664738020672
  46    -4.8270428529727e-16
  47     0.043202906193164
  48     0.052446559176499
  49    -0.0042290351382915
  50    0.0034013903007734
  51    -1.8391418440501e-16
  52    -0.026642702886639
  53    -0.025944229513889
  54    -4.8483156245046e-16
  55     0.028141680232377
 Sym= A
 Ene=              11
 Spin= Alpha
 Occup=    0.00010
   1    -0.018799253147371
   2     0.010359363205752
   3      0.45909819216928
   4      -1.1598069494746
   5     0.078060716072854
   6    -8.1133070186666e-16
   7     -0.14285456623366
   8    -0.085177998267018
   9    2.1415565359021e-15
  10     -0.16821299075923
  11     -0.80768711719316
  12    -1.4975011276419e-14
  13     0.049234547017993
  14     0.041577021462977
  15    -0.078644706878813
  16    1.1667490205174e-15
  17    0.0088617012218979
  18    -1.2745001057407e-15
  19    -0.058880171726534
  20      0.11870503872578
  21    1.9714773024863e-15
  22    -0.019677090575425
  23    -2.5365003860819e-15
  24     -0.13255824685541
  25     -0.32907360689003
  26      0.43997235995977
  27      0.88366634794022
  28     0.079232996601132
  29    1.3791649464926e-14
  30     -0.36554046658897
  31      0.39496065438319
  32    -7.3558559099041e-15
  33     -0.14765608646811
  34      0.40477290928986
  35    2.1212073053049e-14
  36       0.5552578410379
  37    -0.080220378974619
  38    -0.034004227883933
  39    3.3182147849757e-15
  40    -0.014294525905937
  41    9.2450465670158e-16
  42     -0.29232939254739
  43    -0.0036296233792126
  44    6.8539958432867e-16
  45      0.04105963864401
  46    -3.917347752734e-15
  47     -0.19068861301814
  48      -1.2019891391146
  49       0.7341054710513
  50    -0.036514447292258
  51    -1.0381908109117e-15
  52     0.090314526214956
  53     0.064370659989876
  54    -1.4921561406696e-14
  55     -0.15055150912486
 Sym= A
 Ene=              12
 Spin= Alpha
 Occup=    0.00005
   1     0.047263324561198
   2     0.049442043710104
   3     -0.60656624516191
   4      -0.6437557251929
   5     -0.12302334389144
   6    1.0177196032478e-16
   7     0.095226653168067
   8      0.55278554940843
   9    1.121814084889e-15
  10      0.15515730807679
  11      0.38427953804876
  12    -2.4569755793094e-15
  13      0.11166262884593
  14    -0.068037052026414
  15     0.021613565438815
  16    -5.5829400380766e-16
  17     0.027417519887887
  18    -1.4365291658573e-16
  19    -0.016834306423534
  20    -0.087760338144561
  21    -1.7778328060968e-16
  22    -0.042216102844976
  23    1.3633234028408e-16
  24     -0.12107770475847
  25     -0.33617340455784
  26      0.36451131198889
  27       1.0089621243573
  28      0.56299510289464
  29    -2.0505003830872e-15
  30      0.29610822602971
  31     -0.60961074810886
  32    -1.9847687346189e-15
  33       0.1125813062038
  34     -0.23708997946587
  35    3.9156648407958e-15
  36      0.03882385559303
  37      0.26685656934864
  38      0.12628568756977
  39    -3.3495907092422e-16
  40    -0.024392849032751
  41    5.0871251264132e-18
  42      0.42713898694156
  43     -0.16864645215528
  44    -8.7135631620282e-17
  45     -0.21424672932509
  46    2.5355186354241e-16
  47      0.22020155172913
  48     -0.21093054917073
  49       -0.113437427261
  50     -0.13478990309863
  51    -6.1775203010046e-18
  52    -0.040526809797207
  53     -0.29594718664402
  54    7.3615130577963e-16
  55      0.28353375847106
 Sym= A
 Ene=              13
 Spin= Alpha
 Occup=    0.00005
   1    0.0048286080476566
   2    -0.0093049889941192
   3     -0.11238651912364
   4    -0.040859253291262
   5     -0.20622462715236
   6    -1.7609559959185e-15
   7     -0.20332448478545
   8     -0.13230439490723
   9    -9.8953162295653e-16
  10    -0.039854575327887
  11    -0.011654010326814
  12    2.6626658788725e-15
  13    -0.0049111197827024
  14    0.0093400036493848
  15    0.0019269867931609
  16    1.8801335325667e-16
  17    -0.0036149087969098
  18    3.4781169992345e-16
  19    0.0025547755269226
  20    -0.028668535127546
  21    7.3155745251921e-16
  22    0.0085416844992885
  23    3.5044813632447e-16
  24    -0.030001458190922
  25     -0.45082781327381
  26     -0.19978879847035
  27     0.024970204671373
  28      0.17171276222529
  29    -1.3214412621268e-16
  30      0.47020016808815
  31      0.27996137132626
  32    1.1221883715758e-16
  33      0.14207784620616
  34     0.094412158713729
  35    -1.5844149836601e-15
  36    -0.0048368051356282
  37    6.4647546718101e-05
  38     0.012210660948087
  39    -3.8422131425301e-16
  40    0.00031642085634988
  41    -1.3247060561818e-16
  42    -0.0040487988205266
  43     0.019774096385401
  44    1.8802355338166e-16
  45     -0.01830397241756
  46    4.9216509133515e-16
  47    -0.063032242405764
  48    0.0078991306144512
  49    -0.096840629109204
  50    -0.053644223370079
  51    1.0683875813979e-18
  52     0.054402847988044
  53    -0.011406653070147
  54    3.8347608827348e-16
  55     0.031988439510031
 Sym= A
 Ene=              14
 Spin= Alpha
 Occup=    0.00003
   1    1.0615379404238e-16
   2    -4.2061432564027e-16
   3    -9.0110005138764e-16
   4    3.9418564187786e-14
   5    5.3299183759091e-15
   6     -0.10221327798733
   7    -4.4749828081911e-15
   8    -9.7189832962708e-15
   9    -0.060570531988559
  10    2.1444333166353e-16
  11    -4.5944722595329e-15
  12     -0.19115921827722
  13    -1.1556815414814e-14
  14    -5.1977065381606e-16
  15    3.4404874784453e-16
  16     0.061182432617632
  17    -1.3465873340791e-15
  18     -0.12912388467557
  19    -7.982304754307e-16
  20    4.3069145409999e-15
  21    -0.0070889142167732
  22    -7.3102446070712e-16
  23     -0.10028260038222
  24    1.3086559409084e-15
  25    9.181488688768e-18
  26    -2.1475682460735e-14
  27    -6.7839854866043e-14
  28    -6.8193069664896e-16
  29      0.69722647847131
  30    -2.8851742262053e-15
  31    -3.4440135050238e-15
  32     -0.27306221050811
  33    1.8918004602115e-15
  34    -1.4035308375928e-14
  35     -0.11390738134487
  36    -2.6808640917756e-15
  37    9.9169524045463e-16
  38    -5.5459269495458e-16
  39      0.24425439126157
  40    -5.8467693758164e-16
  41     0.085310449164662
  42    -2.7093826297756e-15
  43    6.6476489039819e-15
  44      0.14753896187399
  45    -2.2032889108076e-15
  46     -0.32650408375618
  47    5.773175232141e-15
  48    3.0668664389538e-14
  49    1.7444858052956e-14
  50    -2.1249584168028e-15
  51    -0.086276238100936
  52    1.3224993490194e-15
  53    -8.32458593127e-15
  54     -0.15546778735873
  55    3.768943010999e-16
 Sym= A
 Ene=              15
 Spin= Alpha
 Occup=    0.00003
   1    7.8285231945584e-16
   2    2.460180711638e-15
   3    -1.0739910055464e-14
   4    -2.8801883960328e-14
   5    7.6520119704579e-16
   6      0.41782027559181
   7    2.0108537685338e-16
   8    2.0137732941952e-15
   9      0.32240953849508
  10    7.099545957403e-15
  11    4.8788568185354e-15
  12     0.052794781390295
  13    6.299682809524e-15
  14    7.5707995390302e-17
  15    6.4140463609487e-17
  16     -0.02960536908672
  17    -7.4853158000401e-17
  18    -0.0062780012692818
  19    -1.2668785631113e-15
  20    -1.4412180921057e-15
  21    -0.048586003790043
  22    1.7617996828271e-16
  23    -0.008581684021568
  24    -2.6705659004903e-16
  25    -2.141263216592e-15
  26    3.1868448570715e-15
  27    2.8726789891926e-14
  28    2.6267995140975e-16
  29      0.47532162651195
  30    -8.8350537106406e-16
  31    1.3921099218105e-15
  32      0.20121615326395
  33    1.1834546243454e-14
  34    2.8536499284219e-15
  35    -0.029109806029635
  36    8.8495594123392e-15
  37    4.3395611040099e-16
  38    -5.949573514027e-16
  39    0.0004187004105726
  40    -1.7362946518889e-16
  41     0.024021368064283
  42    2.5629968469706e-15
  43    2.8545294542908e-15
  44    -0.017466025022322
  45    6.7511249473491e-16
  46       0.0139268649042
  47    3.2731721113273e-15
  48    4.8779331485309e-15
  49    -4.2593845334545e-15
  50    -6.8420800268701e-16
  51    0.0017108148976419
  52    -1.3536981235645e-16
  53    -3.8584153594944e-15
  54    -0.021887386451012
  55    2.6751807155083e-15
 Sym= A
 Ene=              16
 Spin= Alpha
 Occup=    0.00002
   1    -0.073278128011287
   2      0.18000515369174
   3      0.62587342579514
   4      0.20623246409885
   5     -0.11044334150041
   6    -2.4566492049681e-15
   7     -0.11863924153131
   8     0.083494020005796
   9    -1.6598189550761e-15
  10     -0.20124865527823
  11     0.033358362160294
  12    -3.9855430660594e-17
  13     0.009668419905176
  14    -0.0097557857659574
  15    -0.013742118415285
  16    2.4102137332738e-16
  17     0.015558823142478
  18    -1.0609640823955e-15
  19     0.066166814747545
  20    -0.088810262531741
  21    -1.4808442315853e-16
  22     0.012043629769085
  23    -1.1419977731859e-15
  24     0.088001730038287
  25      0.47069642424397
  26     -0.14541451899108
  27    -0.017230387898859
  28     0.069669055441264
  29    2.568747414982e-15
  30      0.32070136518653
  31    -0.082345852848844
  32    -1.3613118603392e-15
  33     -0.19597910020073
  34    -0.038641451763388
  35    -6.6118083162177e-16
  36    -0.058753780429916
  37     0.087292756613017
  38      0.10500468971188
  39    1.2349376751202e-15
  40    -0.036372872623189
  41    1.6702464490304e-15
  42     0.024094148393571
  43    -0.064393964990441
  44    6.7932812770985e-16
  45    -0.072834410916461
  46    -2.9878531210039e-16
  47    -0.0065796545785095
  48    -0.076806678561124
  49    -0.033939399303244
  50      0.01702632417719
  51    7.5982048915985e-16
  52    -0.084558345500665
  53     0.080757110907036
  54    -2.4176204471001e-16
  55     -0.10339189480141
 Sym= A
 Ene=              17
 Spin= Alpha