[Molden Format]
made by pyscf v[2.13.1]
[Atoms] (AU)
O   1   8     0.21099695469856     0.00000000000000     2.15462460678861
N   2   7    -0.44776862100326     0.00000000000000    -0.03589262653049
H   3   1     1.18163474748449     0.00000000000000    -1.17386889907833
[GTO]
1 0
 s    8 1.00
                 11720  0.00070964594651845
                  1759  0.0054672722921914
                 400.8   0.027823118610189
                 113.7    0.10474773971146
                 37.03    0.28292084635691
                 13.27    0.44849523869833
                 5.025    0.27081688521277
                 1.013    0.01545029160744
 s    8 1.00
                 11720  -0.00031444341168873
                  1759  -0.0024821376810179
                 400.8  -0.012316355381583
                 113.7  -0.050538917343672
                 37.03   -0.13938490331632
                 13.27   -0.32507749481778
                 5.025   -0.22984830758785
                 1.013     1.0953793467883
 s    1 1.00
                0.3023                   1
 s    1 1.00
               0.07896                   1
 p    3 1.00
                  17.7   0.062679166281506
                 3.854    0.33353656587936
                 1.046    0.74123964163973
 p    1 1.00
                0.2753                   1
 p    1 1.00
               0.06856                   1
 d    1 1.00
                 1.185                   1
 d    1 1.00
                 0.332                   1

2 0
 s    8 1.00
                  9046  0.00069961741342552
                  1357  0.0053860546299287
                 309.3   0.027391021189057
                 87.73    0.10315059198201
                 28.56    0.27857066331743
                 10.21    0.44829484945412
                 3.838    0.27808592839527
                0.7466   0.015431561233271
 s    8 1.00
                  9046  -0.00030499009595337
                  1357  -0.0024080263785077
                 309.3   -0.01194444872518
                 87.73  -0.048925992909017
                 28.56   -0.13447272472496
                 10.21   -0.31511257770011
                 3.838   -0.24285783254964
                0.7466     1.0943822068542
 s    1 1.00
                0.2248                   1
 s    1 1.00
               0.06124                   1
 p    3 1.00
                 13.55   0.058905676772132
                 2.917    0.32046110671427
                0.7973    0.75304206179207
 p    1 1.00
                0.2185                   1
 p    1 1.00
               0.05611                   1
 d    1 1.00
                 0.817                   1
 d    1 1.00
                  0.23                   1

3 0
 s    3 1.00
                 13.01   0.033498726389998
                 1.962    0.23480080117413
                0.4446     0.8136829578829
 s    1 1.00
                 0.122                   1
 s    1 1.00
               0.02974                   1
 p    1 1.00
                 0.727                   1
 p    1 1.00
                 0.141                   1

[5d]
[7f]
[9g]

[MO]
 Sym= A
 Ene=               0
 Spin= Alpha
 Occup=    0.00316
   1    -0.0006874876186368
   2    -0.0040991762107599
   3    -0.021608204167098
   4    -0.028152200594001
   5      0.53721919037691
   6    1.372739433427e-14
   7    -0.095169822703139
   8      0.42530560936367
   9    9.8936259756523e-15
  10    -0.071271532887747
  11      0.09644162885923
  12    -7.843029158139e-17
  13    -0.011766099926808
  14    -0.0012363618172662
  15    -0.0031099189892583
  16    4.6410873094099e-16
  17    -0.0012310564164829
  18    -1.4096728373493e-16
  19     0.002654886655789
  20    -0.015042605373026
  21    -7.6856584165204e-16
  22    -0.0046958043539378
  23    -2.1178343665735e-15
  24    0.0016176364621397
  25       0.1019948264772
  26      0.24843962580874
  27      0.13242475684326
  28     -0.34585264697167
  29    -1.5909525259868e-14
  30    -0.037112400375026
  31     -0.25486463862056
  32    -1.2455383057819e-14
  33    -0.00057552961526794
  34    -0.052901721873634
  35    1.0662204908966e-15
  36    -0.0033752188093608
  37    -0.013018990410799
  38     0.027486264716025
  39    1.6070172917761e-15
  40    -0.006709136449873
  41    6.1751003251741e-15
  42     0.012384037932221
  43    0.0018162276164864
  44    -4.1305314166861e-16
  45    -0.0067264836144793
  46    3.5910666043461e-15
  47     -0.25321050788189
  48     -0.14176630131335
  49    -0.025506390550287
  50    0.0098039346885162
  51    -2.398430691397e-15
  52     -0.01262512818169
  53     -0.00839013996992
  54    5.6845412715428e-17
  55     0.022029943107833
 Sym= A
 Ene=               1
 Spin= Alpha
 Occup=    0.00316
   1    0.0040566050834682
   2    -0.0024863311586824
   3     -0.28592263546664
   4    -0.029340635230924
   5      0.23519736011039
   6    -2.1916651941529e-14
   7     -0.13793222062294
   8      0.19407624816549
   9    -1.6713896805629e-14
  10    -0.026132486970439
  11      0.29891760593175
  12    -1.8259038532641e-14
  13     -0.10878488549423
  14    -0.011871176918274
  15    -0.017452897043849
  16    -1.0765233966452e-15
  17    -0.0042476044799768
  18    -3.9484721376153e-16
  19    -0.042213624889119
  20      0.06497399729643
  21     7.48844956747e-15
  22    -0.031152802564205
  23    2.8883728208293e-15
  24    -0.062916757725233
  25    0.0094981136188879
  26      0.28471674263647
  27      0.46487538872338
  28     -0.31207294946106
  29    2.4808329667138e-14
  30     -0.19335457801003
  31      -0.0935548329877
  32    3.3747938117585e-14
  33     0.033606823603592
  34     -0.30006963325261
  35    -1.1265135042444e-14
  36     0.019830568064958
  37     0.093467661856884
  38    0.0012720335554011
  39    -3.5840168306532e-16
  40      0.15210038578262
  41    8.2512763687681e-16
  42     0.092961764452422
  43     0.091595844257407
  44    7.3633147758974e-15
  45      0.23753614219064
  46    -2.8479194289298e-15
  47     -0.23311895517241
  48    -0.071518247333551
  49    -0.023353897852918
  50    -0.024927467853458
  51    9.9718678181221e-16
  52    -0.042196170059369
  53     -0.20576078859178
  54    1.1565368857327e-14
  55      0.02668920644597
 Sym= A
 Ene=               2
 Spin= Alpha
 Occup=    0.00124
   1    8.5449129010081e-16
   2    2.7641180125113e-15
   3    -1.1957257238104e-14
   4    -2.8705877505374e-14
   5    2.9569253101762e-14
   6     -0.45492942224068
   7    -2.2611702653572e-14
   8    2.397609552259e-14
   9     -0.28969451190478
  10    -5.5318015012572e-15
  11    2.9111253857913e-15
  12    -0.0066771011073175
  13    5.7604069922862e-15
  14    9.4557839565002e-16
  15    -6.5068993448556e-16
  16    -0.013179842572098
  17    -1.8372770996769e-16
  18     0.008432120689707
  19    -7.7165789555987e-16
  20    -2.3861943835147e-15
  21    0.0010277499837458
  22    -4.7961260408823e-16
  23     0.057113279647183
  24    -6.3611069189163e-16
  25    -6.8483841578841e-15
  26    9.7528410103936e-15
  27    3.3946637248736e-14
  28    1.033304455231e-14
  29      0.56011708836013
  30    1.2647073817237e-14
  31    1.0055825568363e-14
  32      0.39872411365369
  33    1.4056180003331e-14
  34    7.0436418051412e-15
  35    -0.0020769136864347
  36    3.2626047222348e-15
  37    -4.5475918609362e-16
  38    3.1134393506309e-15
  39    -0.047259680318177
  40    5.658483713385e-16
  41     -0.20157454320003
  42    3.2203217991627e-15
  43    1.1796303309178e-15
  44    -0.0056349436000866
  45    1.0259600739696e-15
  46     -0.11831604917406
  47    -7.4209563971584e-15
  48    -1.5579621323871e-14
  49    -6.262894256276e-15
  50    1.2064538681495e-15
  51     0.087657456001751
  52    -3.2599104089776e-16
  53    3.5710389533097e-15
  54    -0.0050899217070392
  55    -5.4038226104897e-16
 Sym= A
 Ene=               3
 Spin= Alpha
 Occup=    0.00124
   1    -3.6601428416495e-16
   2    -1.0882996642945e-15
   3    -6.7051422117358e-15
   4    3.2054092984119e-14
   5    8.6058170594236e-15
   6      0.46937088613985
   7    -8.5967008456933e-15
   8    2.148376498001e-15
   9      0.37226158257522
  10    -7.9900927907576e-15
  11    9.0220126653923e-15
  12      0.13029411776481
  13    -1.3308738295728e-14
  14    -1.0777765499581e-15
  15    -5.0503067478016e-16
  16     0.008670929912235
  17    -2.3230300583042e-16
  18    -0.0012863542615535
  19    -1.4558344142009e-15
  20    5.1867665601761e-15
  21    0.0050074670106365
  22    -1.6419391158163e-15
  23    -0.00043240052309058
  24    -2.7341878392934e-15
  25    -5.2016379220824e-16
  26    -5.9088172401219e-15
  27    -2.0732663358731e-14
  28    -1.5317201402399e-14
  29     -0.51790453470486
  30    -9.3640812291873e-15
  31    -1.0016542236413e-14
  32      -0.4274644858284
  33    -4.5827618529675e-15
  34    -2.1029025397463e-14
  35       -0.150558803524
  36    -2.1502279415663e-15
  37    5.7110068654456e-15
  38    -3.61070894281e-16
  39     0.023836784076026
  40    9.3150413307034e-15
  41     0.012548813314509
  42    3.3827180898472e-15
  43    2.9271955353584e-15
  44     0.022072746955228
  45    1.321146676042e-14
  46    0.0073363796622487
  47    -4.6872926508717e-15
  48    1.1884083405057e-14
  49    8.8888457629102e-15
  50    -1.5119988198987e-15
  51     -0.02637291938266
  52    -1.9125607779103e-15
  53    -1.2720635271169e-14
  54    -0.036277264958687
  55    -6.2859024315275e-16
 Sym= A
 Ene=               4
 Spin= Alpha
 Occup=    0.00008
   1    -0.0054039334170982
   2    -0.063448062288194
   3    -0.093182388010956
   4    -0.014502941290241
   5     -0.26377408679157
   6    -3.3169432286097e-14
   7      0.19879850313378
   8     -0.18661501197715
   9    -2.3180024788623e-14
  10      0.16270374886568
  11    -0.046660254582079
  12    -1.3585215103962e-15
  13     0.020553160060156
  14    -0.0046011963281425
  15     0.020577747921657
  16    -2.8772000049407e-16
  17    -0.0053076746377908
  18    8.2599113687002e-16
  19     -0.01634368272015
  20     0.016363581914656
  21    7.2469219117664e-16
  22    -0.0017133994925695
  23    3.8671355914234e-15
  24    -0.00056562040623157
  25      0.24188287325805
  26       0.4118776191494
  27     0.058344835969447
  28     -0.33830488989977
  29    2.3831435171939e-14
  30     -0.11024766121503
  31     -0.20816308096627
  32    1.7389224560765e-14
  33    -0.034665194097833
  34    -0.001114393244526
  35    -1.3149051781954e-15
  36    -0.0017665518979481
  37     0.015798443440583
  38    -0.038826615771132
  39    -4.2617856161982e-15
  40    -0.022282072239697
  41    -1.2724893020027e-14
  42     0.025224247105958
  43    -0.021856803470914
  44    -3.7223659256703e-16
  45    -0.017996319640982
  46    -7.7537050982347e-15
  47    -0.094928285866812
  48    -0.020845940317299
  49    -2.9258984354546e-05
  50    -0.0028222152875027
  51    4.3488569794706e-15
  52    -0.0071074169953546
  53    -0.0027566391023945
  54    -3.4226195059733e-16
  55    -0.0089263561974806
 Sym= A
 Ene=               5
 Spin= Alpha
 Occup=    0.00008
   1    -0.009393813299798
   2    -0.012857671487031
   3      0.13447588361529
   4     -0.25838630142702
   5      0.16136860000893
   6    2.8359475065232e-14
   7      0.13594577481403
   8      0.30601568553379
   9    -3.9589924278904e-14
  10    -0.018124919883046
  11      0.43484298202754
  12    -1.7912118353253e-14
  13    0.0049138765781802
  14     0.046073219470195
  15    -0.025641249226222
  16    6.5349170088462e-15
  17     0.018096835417996
  18    4.1059796162848e-15
  19     0.088562990198178
  20    -0.082959671908279
  21    3.0560048635267e-14
  22     0.039808232680263
  23    7.7221214837692e-15
  24     0.031161869989773
  25     0.070791558639338
  26    -0.0052679853055328
  27      0.29153683675921
  28     0.098400229901301
  29    -2.1667634101327e-14
  30      0.08652643589023
  31       0.0924863929903
  32    2.5131218178123e-14
  33    -0.021160108506539
  34     -0.12549706089573
  35    9.9402176701851e-14
  36    -0.041302710078005
  37    -0.099142133474195
  38      0.03150557345125
  39    1.1104693985675e-14
  40     -0.17258765544598
  41    6.0258523531482e-15
  42     -0.11747096658607
  43     0.082752709512176
  44    9.1306339667485e-15
  45     -0.18978265338049
  46    1.6823444186566e-14
  47     -0.38286646435644
  48     -0.18014017709824
  49    -0.068270349581772
  50    -0.0011131042603351
  51    2.3318212496178e-15
  52     0.021365970288092
  53    -0.0051241395425538
  54    -1.5976991549845e-14
  55      0.18926398818889
 Sym= A
 Ene=               6
 Spin= Alpha
 Occup=    0.00002
   1    -1.3035365840317e-15
   2    -3.0106438572146e-14
   3    -5.3384049071138e-14
   4    -5.5356649844652e-14
   5    -1.6487995276608e-15
   6      0.40066558640805
   7    -1.9356399137466e-14
   8    -3.6566760935017e-15
   9       0.3443931449855
  10    4.0039294361159e-15
  11    1.567284413598e-15
  12     0.060534912363336
  13    1.169879622445e-14
  14    2.5948917263794e-15
  15    2.2862922900102e-15
  16    -0.022404185395534
  17    -1.2405776480029e-15
  18    -0.0027200524247727
  19    -1.3779877865832e-15
  20    1.303701326667e-15
  21     -0.02860594575018
  22    1.7539933458243e-16
  23    -0.022459175257341
  24    -9.7668573989075e-16
  25    2.402041949037e-14
  26    4.8176400866361e-14
  27    5.6222116640238e-14
  28    1.1604420202144e-14
  29      0.29969886871454
  30    1.8928349903678e-14
  31    -5.5885233404973e-16
  32      0.25018795151016
  33    2.8235150355026e-14
  34    6.5946740794112e-15
  35      0.02934554650615
  36    1.1624906526967e-14
  37    -6.6663727792248e-16
  38    -4.0963407438178e-15
  39     0.042180318441202
  40    -5.6997300289749e-15
  41     0.096574307863273
  42    6.3001271769776e-15
  43    -1.2388407572417e-15
  44     0.011608394617507
  45    -5.5533138060922e-15
  46     0.058732258856751
  47    -3.5341763102605e-16
  48    -5.9187571378717e-15
  49    -7.7868269223004e-15
  50    -1.0700873290411e-15
  51    0.0064436901216343
  52    1.4406124216115e-15
  53    -9.6382248782286e-16
  54    0.0079421244925266
  55    -1.7276697454718e-16
 Sym= A
 Ene=               7
 Spin= Alpha
 Occup=    0.00002
   1    9.8326753234943e-16
   2    -1.3399409420322e-15
   3    -1.1031997735542e-13
   4    -2.0327277034563e-13
   5    1.0229930771597e-14
   6     -0.10234569822221
   7    1.3943408407531e-14
   8    1.1219638783058e-14
   9     -0.14244540261355
  10    9.836614810217e-14
  11    2.2023534626942e-14
  12      -0.4878614946412
  13    2.164289473657e-14
  14    7.9217230488179e-15
  15    -6.2209402653209e-16
  16    0.0017883869901974
  17    1.5094083959189e-14
  18    -0.0037405395903043
  19    -2.4601817359717e-16
  20    7.557594278562e-15
  21     0.023471073502941
  22    -2.8317493691055e-16
  23    0.00059202219875791
  24    -9.0092012092572e-16
  25    3.7195625269163e-16
  26    8.0731791514326e-14
  27    2.4253577276373e-13
  28    1.2387633029071e-14
  29     0.082010411514921
  30    1.6674861576999e-14
  31    6.5768890686365e-14
  32     -0.12670609809154
  33    1.1133266683393e-13
  34    2.1341806334014e-14
  35     -0.11910495861699
  36    5.8907468370071e-14
  37    -1.3713337273589e-14
  38    2.271631571441e-15
  39     0.038172714211159
  40    -1.8394044736317e-14
  41     0.011997113451967
  42    2.0281839762052e-14
  43    3.9093177770785e-14
  44     -0.15447321840343
  45    9.3650326386897e-15
  46    -0.032634324995558
  47    -1.9483167999346e-14
  48    -2.7896096744542e-14
  49    -3.5962465499662e-16
  50    9.0519345624402e-16
  51    -0.065320790886771
  52    -6.5969916397578e-15
  53    -1.5153479970549e-14
  54     -0.25700742888149
  55    6.8618545171534e-15
 Sym= A
 Ene=               8
 Spin= Alpha
 Occup=    0.00001
   1    0.0067347558395041
   2     0.028028054075941
   3     0.056186098366108
   4    -0.038324212189288
   5     -0.22756346680195
   6    -2.4062539409271e-15
   7     -0.21568584923347
   8     -0.13959640876647
   9    -3.6992492970581e-15
  10     -0.14670605983329
  11     0.057202915510262
  12    2.1584815393145e-16
  13    -0.022241151642689
  14    0.0051184492024393
  15    0.0017574265838696
  16    1.1442462763537e-15
  17    0.0064908383042199
  18    -3.1921783086857e-15
  19    -0.011776293447116
  20     0.016632117158197
  21    2.2736170659809e-15
  22    -0.0054837364233334
  23    -5.7958353155729e-15
  24    -0.00028547626266004
  25      -0.2204768038271
  26     -0.29838603587293
  27    -0.0067816111422575
  28     -0.25006975680207
  29    -4.5768022791441e-15
  30      0.39682497260706
  31    -0.087673896634057
  32    -5.5226872592898e-15
  33      0.09925276465019
  34    -0.042239076983587
  35    -1.1243211846645e-16
  36     0.025093750673919
  37     0.014264694105833
  38     0.055651787540751
  39    5.8198662385432e-15
  40    -0.0055856026333441
  41    4.5689416658043e-15
  42    -0.080217620561277
  43     0.037579834503123
  44    5.1910915677375e-15
  45     0.039003920896986
  46    5.3858038052209e-15
  47     -0.18377509104086
  48    -0.066184656459668
  49    -0.0027224492706408
  50     0.026894818469953
  51    4.7447499638094e-16
  52    -0.024666595690438
  53    -0.011457990155304
  54    7.4849857078583e-16
  55    -0.024142904433458
 Sym= A
 Ene=               9
 Spin= Alpha
 Occup=    0.00001
   1     0.018126487388068
   2     0.028562323191511
   3     -0.97028711421797
   4     -0.47420972594454
   5    -0.0095586839537307
   6    3.1167704243322e-14
   7      0.07087502890274
   8      0.42217734472532
   9     1.49020653167e-14
  10      0.29479699093096
  11      0.27394791051507
  12    2.5365738179052e-13
  13      0.15836760574151
  14    -0.0058368946986787
  15    -0.011794018761147
  16    1.2955479969128e-14
  17     0.022204558714084
  18     4.39755955011e-15
  19      0.16797941810103
  20      -0.1894961512538
  21    -6.0674741424595e-14
  22    -0.0034456996671719
  23    -1.2779382802152e-14
  24    -0.078777006241485
  25     -0.34616478493192
  26     -0.51507058082434
  27     -0.31540867465977
  28     -0.34350858094665
  29    4.7046765042119e-14
  30      0.21903667849939
  31     -0.42769303229029
  32    -7.8051904764899e-14
  33       1.0514380490527
  34     -0.19317006370901
  35    -2.7395028543344e-13
  36      0.15057811462353
  37      0.10152836304748
  38      0.13461811354361
  39    -2.157908906711e-15
  40    0.0030541277787737
  41    9.600183665866e-15
  42      0.45809256029302
  43      0.27577399353268
  44    -6.280789089422e-14
  45     -0.16298985607324
  46    -6.2674861224085e-14
  47      0.70668111160737
  48       2.0165321855224
  49       0.1618179986314
  50    -0.076930293716439
  51    1.3730050406997e-15
  52      0.03471982102099
  53      -0.3590997778573
  54    7.1782943194155e-14
  55      0.36777746778374
 Sym= A
 Ene=              10
 Spin= Alpha
 Occup=    0.00000
   1    0.0010865299607056
   2      0.33283229459192
   3      0.45077725851478
   4     0.083805783413781
   5      0.27046435518574
   6    1.8375592161924e-14
   7      0.28822142514378
   8    -0.013326857163895
   9    2.7000966697574e-14
  10      0.23462510089005
  11     -0.20077022693815
  12    6.6395592148107e-15
  13     0.052464363322049
  14    -0.028908351375249
  15     0.036916903561296
  16    -3.7222329252218e-15
  17    0.0029395602318149
  18    5.9533585937764e-15
  19    -0.016091585257593
  20     0.040507428568099
  21    -5.1091641903694e-15
  22    -0.0026873029659304
  23    7.9397085054166e-15
  24    0.0036434892688092
  25     -0.15229083056232
  26     -0.19784479617236
  27     -0.11883687222758
  28    -0.074128555853104
  29    9.9352028126271e-15
  30     0.015323742839103
  31    -0.065331275339795
  32    2.7566455483614e-14
  33     0.028307976951341
  34     0.092896598475736
  35    3.8084726366506e-15
  36    -0.021038031690948
  37     0.027204107339048
  38    -0.072098242466693
  39    -4.2055097874207e-15
  40    -0.017037860696774
  41    -4.8719055446686e-16
  42     0.048871591173157
  43     -0.11198758764143
  44    -3.8178606207909e-15
  45    -0.027474414507136
  46    -7.4400959925727e-15
  47     0.012637396135407
  48      0.10946145701744
  49     0.028465635336825
  50     0.028283945054623
  51    -1.1804098144828e-15
  52    -0.018510010829719
  53     0.032697959663024
  54    -1.1793366379128e-17
  55    -0.032456145407985
 Sym= A
 Ene=              11
 Spin= Alpha
 Occup=    0.00000
   1      0.10034005852359
   2     0.021002331526365
   3     -0.43564489398655
   4     -0.83418092574475
   5    -0.079251116648853
   6    9.8949139638413e-15
   7     -0.11785016958663
   8      0.16891789828918
   9    -4.1748265107823e-14
  10     -0.20076733333597
  11    -0.0023057754125436
  12    -2.3158155076859e-13
  13      0.13114156852847
  14    -0.081323069831291
  15    -0.0057247711428686
  16    1.152873931684e-14
  17     -0.21875074593405
  18    -8.6408156557278e-15
  19    0.0092940668187211
  20     -0.19750328844234
  21    -4.5120162668139e-14
  22    -0.035821488718472
  23    -6.1312477085182e-15
  24     0.010066212390923
  25      0.17615946862226
  26      0.33397787122413
  27    -0.0022005091414959
  28     -0.24369655601342
  29    -4.8124678089799e-15
  30     0.067859602772294
  31     -0.27761867233961
  32    -1.4637153859473e-13
  33      0.15824458683451
  34       0.2685066775522
  35    4.313543397652e-13
  36      0.16531939657473
  37     -0.03130266483274
  38      0.02436365677636
  39    1.8477881107207e-14
  40    -0.0079843818079614
  41    2.8196745602465e-15
  42    -0.058019255955389
  43    -0.074490139530397
  44    -1.1130876007562e-14
  45     -0.29473752951444
  46    2.3129762974048e-14
  47      0.28788226935436
  48       0.3038174703259
  49    -0.042482216693555
  50    -0.030203451656731
  51    -1.5632139414806e-14
  52     0.049833726421948
  53    1.5607821591388e-05
  54    -9.4790449289654e-14
  55      0.14567464934196
 Sym= A
 Ene=              12
 Spin= Alpha
 Occup=    0.00000
   1     0.032006996306536
   2      0.27031544768701
   3      0.22440065602594
   4    0.0036211094745011
   5     -0.50303156958503
   6    9.6811460806419e-16
   7       0.1205121518312
   8    -0.092866498171258
   9    1.8565808174691e-14
  10    -0.032548420643566
  11      0.50869664854754
  12    9.0698204167441e-15
  13     -0.13666094669666
  14    -0.028732448124064
  15    -0.051975630381098
  16    -1.9915371122096e-15
  17     0.037289930933098
  18    3.3243823221529e-15
  19    -0.015947042769301
  20    0.0017299276652955
  21    -3.7488962328599e-15
  22    0.0079137899749193
  23    7.1743316743671e-16
  24    -0.058109672468583
  25     -0.28071828947993
  26     -0.16157238069104
  27      0.30335408331016
  28     0.065809757118474
  29    -6.8053781113196e-16
  30     -0.27044049416651
  31     0.061680819016959
  32    2.4017969589851e-14
  33     -0.28822074580654
  34     -0.28761302727603
  35    3.8755028661758e-15
  36     0.046550240624741
  37     0.013435028442464
  38      0.23313552966142
  39    -3.5147406994769e-15
  40     0.015931846349715
  41    1.2642316755139e-14
  42     -0.18216656689849
  43      0.34019386236084
  44    -6.8180724819553e-15
  45      0.13896214235283
  46    -1.135558300683e-15
  47     -0.10296242577073
  48     -0.23210952217208
  49    -0.072727730205745
  50    -0.085425904423897
  51    -5.1860207572054e-15
  52     0.020189933448289
  53     -0.17895327796731
  54    -7.887191882489e-16
  55     0.093960509512013
 Sym= A
 Ene=              13
 Spin= Alpha
 Occup=    0.00000
   1     0.057173909370432
   2      0.11598462460573
   3     0.074969821149101
   4     -0.48429605335985
   5    -0.069891453593686
   6    5.3230212841039e-14
   7    -0.032720165615206
   8     -0.22793355761516
   9    -6.2475047718486e-14
  10     -0.22672717693798
  11      0.24836348226669
  12    -2.065230483074e-13
  13    -0.056125819473209
  14    -0.064234149611788
  15    -0.021074873701908
  16    1.0812729896917e-14
  17     -0.14914874343172
  18    -3.4625209044636e-15
  19    -0.085841488388494
  20    0.0052581655388788
  21    -9.3097038633157e-15
  22    -0.056967202363161
  23    -1.0082696038095e-15
  24     -0.13001266622291
  25     -0.50464269335938
  26    -0.017370002578778
  27      0.84567237814066
  28      0.43278234658463
  29    -7.1486771483024e-16
  30     -0.23491467288583
  31      0.38896736035249
  32    -7.0399358964483e-14
  33     -0.43167920793096
  34    -0.063196549627444
  35    3.5651715921785e-13
  36    -0.0032834239036238
  37      0.21073948176613
  38     -0.03337571439943
  39    1.1944345110479e-14
  40      0.28654059052268
  41    1.1331711020208e-15
  42     -0.06862838609204
  43    -0.022480636568105
  44    -1.8270891348059e-14
  45      0.22223540144108
  46    2.2249604243984e-14
  47     -0.29640583301799
  48     -0.56492779849825
  49     -0.14096318645364
  50    -0.010476546632472
  51    -9.4768288357408e-15
  52    -0.038711441222086
  53     -0.19633606816887
  54    -7.9119952313554e-14
  55     0.059164729928923
 Sym= A
 Ene=              14
 Spin= Alpha
 Occup=    0.00000
   1    7.8879917010137e-15
   2    5.4667344837578e-15
   3    -2.7381240136025e-14
   4    -6.1410221112022e-14
   5    5.072241689769e-15
   6     -0.47841543194635
   7    -1.761913368356e-15
   8    9.5251789862221e-17
   9     -0.12232309362794
  10    1.4588331382253e-14
  11    -4.1364879238555e-14
  12      0.12709928793925
  13    2.4664693228978e-14
  14    -3.4363866068417e-15
  15    -9.2308728460946e-15
  16     0.047267092132316
  17    -1.8604613612964e-15
  18     -0.22231485610663
  19    1.4292137167052e-15
  20    -1.849970653983e-14
  21     0.079639111274329
  22    -9.2959723360769e-15
  23     -0.30451352473984
  24    4.9150328885804e-15
  25    -1.0621975396173e-14
  26    -2.2175042312455e-14
  27    1.7434376643839e-14
  28    -9.2731643215776e-14
  29      -0.2383812848654
  30    -4.6127258137157e-14
  31    2.9365638177381e-14
  32      0.21915999007618
  33    -3.9429824422162e-15
  34    4.3155001473392e-14
  35     0.030334064645212
  36    7.1254581841424e-15
  37    -1.3726793124389e-16
  38    1.3736087692495e-14
  39      0.12993154681097
  40    2.3695149614961e-14
  41      0.54433504239057
  42     1.27820782862e-14
  43    -1.8655843940784e-15
  44      0.14186358590106
  45    1.3940998604449e-14
  46      0.29207971626963
  47    2.1353361973824e-14
  48    3.7784335640345e-14
  49    -1.067038076468e-15
  50    7.9550675595283e-15
  51      0.12867908086654
  52    -8.6309563354099e-15
  53    1.9436058340712e-14
  54      0.10869154537786
  55    -3.651037513343e-15
 Sym= A
 Ene=              15
 Spin= Alpha
 Occup=    0.00000
   1    -3.8245830717669e-15
   2    1.7346022046628e-14
   3    2.3247441265378e-13
   4    1.8665800164702e-13
   5    3.8589818334279e-14
   6      0.61726293583758
   7    -1.8651464378156e-14
   8    1.4281164097861e-14
   9    -0.0033668255554811
  10    -1.2397022106247e-13
  11    -7.8714492834079e-14
  12      0.04386255742417
  13    -2.0241967307347e-14
  14    -4.2541713184107e-15
  15    -5.8621969719716e-15
  16     0.049064058163151
  17    -5.5982063608705e-15
  18      0.17510135946245
  19    3.0931026096565e-15
  20    -2.0052871926291e-14
  21      0.13068344431768
  22    -4.7306649244934e-15
  23      0.19951257861723
  24    6.0997526220524e-16
  25    -1.9111208380639e-14
  26    -5.5826740362057e-14
  27    -2.4857852850348e-13
  28    -5.8675836326814e-14
  29      0.52436916184085
  30    -4.0543112517259e-14
  31    -8.1359038890314e-14
  32      -0.1385828898843
  33    -1.6244159628122e-13
  34    5.3573501217063e-14
  35     0.003296310983131
  36    -5.8237537451674e-14
  37    4.7526376292158e-16
  38    -1.5149713880968e-14
  39     -0.21417250465407
  40    2.5991846961957e-14
  41     -0.35043991985777
  42    -4.7885981791893e-14
  43    -8.5023896083834e-14
  44     -0.23155787986258
  45    -3.5314484301378e-14
  46     -0.26975930969864
  47    -2.7631620201449e-14
  48    -8.2876470155792e-14
  49    -3.8897428184862e-16
  50    9.9507783630288e-15
  51    -0.084325015896607
  52    9.0312345131821e-15
  53    6.0946938951079e-14
  54    -0.019179847511672
  55    -2.0434685812879e-15
 Sym= A
 Ene=              16
 Spin= Alpha
 Occup=    0.00000
   1    -0.064214275133388
   2    -0.023688532893769
   3      0.18281177033852
   4       0.0386236570953
   5     0.012831780750707
   6    -6.726568582905e-14
   7     -0.08387179893853
   8     0.037603947461756
   9    -3.5015571591136e-14
  10    -0.0080243014838523
  11      0.16827785455807
  12    7.4547340132723e-15
  13    -0.015780069222068
  14     0.017657795251605
  15     0.082265499222047
  16    1.3047919797771e-14
  17    0.0020867750235158
  18    -6.0997095918631e-14
  19    -0.029596348069412
  20       0.1204669270942
  21    1.7636486888784e-14
  22     0.068864963333196
  23    -6.1037765105395e-14
  24    -0.032624636082849
  25      0.16920722950463
  26      0.32014894554712
  27      0.34584314361835
  28      0.57569602094549
  29    -2.5294244354712e-14
  30      0.26060350231464
  31    -0.021258997814331
  32    -2.5571250587133e-16
  33     0.023071493138715
  34     -0.13221484342052
  35    4.1602558919372e-15
  36    -0.024964970361357
  37     0.072157113587164
  38      -0.1395792274661
  39    3.9314183728398e-14
  40     -0.06081561884973
  41    6.1364516855996e-14
  42     0.033111214896002
  43    -0.065044096254974
  44    3.6210947024184e-14
  45    -0.036960212798738
  46    4.5330415758478e-14
  47     -0.28999670476134
  48     -0.35233134354734
  49    -0.069407347955651
  50    -0.030435304921833
  51    3.0534745884101e-14
  52     0.061367869074129
  53    -0.079364759177179
  54    1.8232134897878e-14