[Molden Format]
made by pyscf v[2.13.1]
[Atoms] (AU)
O   1   8     0.21099695469856     0.00000000000000     2.15462460678861
N   2   7    -0.44776862100326     0.00000000000000    -0.03589262653049
H   3   1     1.18163474748449     0.00000000000000    -1.17386889907833
[GTO]
1 0
 s    8 1.00
                 11720  0.00070964594651845
                  1759  0.0054672722921914
                 400.8   0.027823118610189
                 113.7    0.10474773971146
                 37.03    0.28292084635691
                 13.27    0.44849523869833
                 5.025    0.27081688521277
                 1.013    0.01545029160744
 s    8 1.00
                 11720  -0.00031444341168873
                  1759  -0.0024821376810179
                 400.8  -0.012316355381583
                 113.7  -0.050538917343672
                 37.03   -0.13938490331632
                 13.27   -0.32507749481778
                 5.025   -0.22984830758785
                 1.013     1.0953793467883
 s    1 1.00
                0.3023                   1
 s    1 1.00
               0.07896                   1
 p    3 1.00
                  17.7   0.062679166281506
                 3.854    0.33353656587936
                 1.046    0.74123964163973
 p    1 1.00
                0.2753                   1
 p    1 1.00
               0.06856                   1
 d    1 1.00
                 1.185                   1
 d    1 1.00
                 0.332                   1

2 0
 s    8 1.00
                  9046  0.00069961741342552
                  1357  0.0053860546299287
                 309.3   0.027391021189057
                 87.73    0.10315059198201
                 28.56    0.27857066331743
                 10.21    0.44829484945412
                 3.838    0.27808592839527
                0.7466   0.015431561233271
 s    8 1.00
                  9046  -0.00030499009595337
                  1357  -0.0024080263785077
                 309.3   -0.01194444872518
                 87.73  -0.048925992909017
                 28.56   -0.13447272472496
                 10.21   -0.31511257770011
                 3.838   -0.24285783254964
                0.7466     1.0943822068542
 s    1 1.00
                0.2248                   1
 s    1 1.00
               0.06124                   1
 p    3 1.00
                 13.55   0.058905676772132
                 2.917    0.32046110671427
                0.7973    0.75304206179207
 p    1 1.00
                0.2185                   1
 p    1 1.00
               0.05611                   1
 d    1 1.00
                 0.817                   1
 d    1 1.00
                  0.23                   1

3 0
 s    3 1.00
                 13.01   0.033498726389998
                 1.962    0.23480080117413
                0.4446     0.8136829578829
 s    1 1.00
                 0.122                   1
 s    1 1.00
               0.02974                   1
 p    1 1.00
                 0.727                   1
 p    1 1.00
                 0.141                   1

[5d]
[7f]
[9g]

[MO]
 Sym= A
 Ene=               0
 Spin= Alpha
 Occup=    0.90419
   1    -0.0021185821031342
   2    -0.017412280572726
   3    -0.035720481171906
   4    -0.027899619157978
   5      0.48043363722407
   6    1.5828941927721e-17
   7    -0.076854561339123
   8        0.394975128504
   9    9.6484441776495e-16
  10    -0.061665936197669
  11      0.11374804615037
  12    -3.6992332042637e-16
  13    -0.015341649861646
  14    -0.0020693113576254
  15    -0.00033990721661351
  16    1.0414272736855e-16
  17    -0.00019726861080488
  18    7.5248642035195e-17
  19    0.00062000477297459
  20    -0.0093327304068338
  21    -7.1216485624217e-16
  22    -0.0027079231503423
  23    -3.6161280311469e-16
  24    -0.0011352812766951
  25      0.12704458848028
  26      0.29502839979534
  27      0.15575964325456
  28     -0.37504706331353
  29    6.0475674212727e-16
  30    -0.045301517325867
  31     -0.27707930521383
  32    -9.3406067153069e-16
  33    -0.011181563500961
  34    -0.067319346582132
  35    1.0012964966297e-15
  36    -0.0028254773957882
  37    -0.0099794416596037
  38     0.024695668702758
  39    3.1881312639449e-17
  40    -0.010656988982984
  41    -1.0133472557127e-17
  42     0.010968266196519
  43    0.0062546131711592
  44    -6.9721214632386e-16
  45    -0.0070585760097422
  46    -2.0792426637603e-17
  47     -0.27334352331572
  48     -0.16053792654457
  49    -0.029840231741023
  50    0.0060649044457395
  51    1.0674709100857e-16
  52    -0.010901224095289
  53    -0.016069893216416
  54    -1.9674704272714e-16
  55     0.024879151879068
 Sym= A
 Ene=               1
 Spin= Alpha
 Occup=    0.90419
   1    -0.004765369631937
   2     -0.13276815510337
   3     -0.54656447582892
   4      -3.0012117802966
   5    -0.00098564639548401
   6    6.6267153294631e-15
   7     0.052553776531232
   8      0.03892029420195
   9    2.7451552931433e-15
  10      0.30130392140208
  11      0.34867736330424
  12    -1.6795679542743e-14
  13      0.86331677697667
  14    0.0018344955473446
  15    -0.0017563859140705
  16    -9.9402005552072e-17
  17      0.00492013034564
  18    4.4692097276464e-17
  19    -0.051850450605791
  20    -0.023630063633269
  21    1.4026537055336e-15
  22    -0.0062105489171015
  23    1.6179623932297e-16
  24    -0.0043672161249447
  25     0.053933587524508
  26      0.46973289358926
  27       3.1158189840143
  28     0.074675718695717
  29    -8.9317778122961e-15
  30     0.036223344108879
  31      0.14859406089527
  32    -4.6511247338991e-15
  33      0.42579027531875
  34      0.30057412017938
  35    2.7956685984619e-14
  36       1.6928201470706
  37     -0.01816715312366
  38    -0.0038498815840258
  39    -3.4865819688241e-16
  40    -0.00025900338866864
  41    -7.8753809859221e-16
  42     0.048741093093114
  43     0.059592613726537
  44    9.2904505958477e-16
  45     0.005398301335814
  46    3.2001542691255e-16
  47    -0.0039053437494715
  48      0.10058659569644
  49     -0.26044745871751
  50    0.0013317343309011
  51    -9.118583471981e-17
  52     0.012717270090763
  53    -0.071812453193936
  54    1.0587783987429e-16
  55      0.13766373199578
 Sym= A
 Ene=               2
 Spin= Alpha
 Occup=    0.00409
   1    0.0010285334594292
   2    0.0021256280492313
   3    -0.001581990255249
   4    -0.011644749995306
   5      0.40525479686253
   6    2.7566554187808e-15
   7      -0.2161304867814
   8       0.2558975775834
   9    2.6177213162238e-15
  10     -0.14523995890675
  11     0.020887428222937
  12    -1.8440692783852e-16
  13    -0.010762799979055
  14    0.0091501744354684
  15    -0.0086790124635295
  16    -2.6000948025066e-16
  17    -0.0038941780549634
  18    8.9823381544931e-16
  19     0.010132983541116
  20    -0.0061018558358211
  21    -9.6142738218372e-16
  22    -0.0022608688144644
  23    2.2064269619831e-17
  24    0.00011395311508172
  25     -0.15215134558576
  26     -0.25687662207452
  27    -0.022617400431799
  28      0.36326956501745
  29    4.9549753204628e-15
  30     0.097862029704992
  31      0.17436310213197
  32    1.0652654446694e-15
  33     0.067034038683582
  34     0.012339184613177
  35    4.7716819056488e-16
  36     0.004410799600889
  37      -0.0113749701458
  38     0.014479370233778
  39    -1.364940895563e-16
  40     0.018927296810979
  41    -6.6635595325888e-17
  42    -0.0026523986810972
  43    -0.012215420150257
  44    -1.2071651784238e-15
  45    0.0034214255770692
  46    -1.4078960619822e-16
  47      0.11413944214557
  48    0.0096673351952852
  49    -0.0015447984833673
  50    -0.0006723479063311
  51    2.076465443524e-17
  52    0.0057781361453648
  53    0.0051212203999593
  54    -3.3146990924337e-16
  55    -0.00092267139316998
 Sym= A
 Ene=               3
 Spin= Alpha
 Occup=    0.00409
   1    -0.042268219227384
   2     -0.20703601160255
   3      -0.4889915035455
   4       1.1712776594919
   5    -0.0051547515722257
   6    1.4821648360752e-14
   7     -0.11152516206448
   8    -0.028363650625127
   9    -1.3308496387579e-14
  10     -0.14387687632701
  11     0.076395760998228
  12    -3.8155865961702e-14
  13      0.61368545761355
  14    -0.0045091810306843
  15     -0.02403988081092
  16    3.097457501365e-15
  17     0.035381047215771
  18    1.4887883033699e-15
  19     0.042623627574157
  20    -0.0085256689072134
  21    1.0392851194541e-14
  22     0.022357451954962
  23    1.8041731714951e-15
  24    -0.037956054751524
  25     -0.16750025200383
  26     -0.33658340383753
  27     -0.12493320251243
  28    -0.046391682337175
  29    4.4549214291752e-14
  30       0.1403825589256
  31    -0.017418577275378
  32    9.272699614572e-15
  33      0.15926073771409
  34     -0.14326890736334
  35    4.3485963976001e-14
  36      -0.7617377263141
  37     0.012844511161642
  38    0.0099643185356128
  39    -9.5378350268616e-15
  40     0.023771028436657
  41    3.1442090560432e-15
  42      0.20781182496392
  43      0.10832226078789
  44    -2.236790952099e-14
  45     0.019779561517227
  46    -1.8320590552226e-15
  47    -0.017356415747801
  48      0.33656496080973
  49      0.25551022329167
  50     0.011120802107765
  51    1.5064409188645e-15
  52    -0.022789687147943
  53     -0.16639340093197
  54    3.6266090308459e-15
  55    -0.030245302131687
 Sym= A
 Ene=               4
 Spin= Alpha
 Occup=    0.00026
   1    -0.013430353709882
   2        0.259180388492
   3       0.4538197049012
   4      0.13234739741587
   5     0.030640498610169
   6    -1.7250560511232e-13
   7      0.22738109735269
   8       0.0113953612925
   9    -1.1455333768764e-13
  10      0.11654536085706
  11    0.0028601436301678
  12    -1.4432231414877e-14
  13    -0.013151213469512
  14    -0.017975574162982
  15    -0.0072461633693595
  16    9.1189827980223e-15
  17    0.0097068207676664
  18    -2.0750155152817e-16
  19    -0.026390494179045
  20    -0.0097117521299498
  21    1.2824057064425e-14
  22     0.024460958361094
  23    -5.6353772098215e-15
  24    -0.00088932348799007
  25     -0.32065855802956
  26     -0.31579992255768
  27    -0.066048573258939
  28    -0.052549010368432
  29    -1.7080321256471e-13
  30     0.036976281304084
  31    0.0050876162793487
  32    -9.9536625762919e-14
  33    -0.026131920428877
  34    -0.0097134148677904
  35    -5.8709334561087e-15
  36    -0.015972685068763
  37     0.013306997545896
  38    0.0084498856466426
  39    -1.7530409143408e-14
  40    -0.013036741078815
  41    -1.4748724738349e-15
  42    -0.0038358712426473
  43    -0.0040296688441026
  44    -2.2874000569728e-15
  45    -0.00097090717114479
  46    -9.4166567376559e-15
  47     -0.27132914671867
  48    -0.039102347164733
  49    0.0017722022808597
  50     0.016747023797078
  51    -2.9978938239568e-15
  52    -0.019296289541939
  53    -0.0051392637784082
  54    -5.9784796677241e-16
  55    -0.0006139362547617
 Sym= A
 Ene=               5
 Spin= Alpha
 Occup=    0.00026
   1     0.020726218346835
   2     0.053285519009171
   3    -0.030419958004665
   4     -0.82216643422476
   5     -0.10858164778487
   6    1.8402383302517e-13
   7     0.098283874213944
   8     -0.51594110025417
   9    2.1957726028792e-13
  10     0.033638774753408
  11       1.2165599377571
  12    1.5254379898225e-14
  13      0.12977189613821
  14    -0.026112978527607
  15     0.098063215497329
  16    1.1828196268233e-14
  17     0.015856192955339
  18    -8.0617935832017e-14
  19    -0.012884200579526
  20      0.14522466317274
  21    -3.1608213145331e-16
  22     0.015914065673084
  23    -3.3155456886396e-14
  24    -0.058636686342776
  25     -0.16152473801644
  26      -0.4074691501668
  27      0.99173943247861
  28     -0.23621655073491
  29    -2.926852638467e-13
  30      0.17051585829412
  31     0.037518172957608
  32    -1.7820873777236e-13
  33      -0.1273443799601
  34     -0.29437444193967
  35    4.1073885850908e-14
  36     0.040433287912358
  37    0.0015000061882062
  38    -0.060390031291758
  39    4.530366372647e-14
  40    -0.021206860920619
  41    -6.3110870025833e-14
  42    -0.017687067938478
  43      0.19887091858321
  44    1.2866229465701e-14
  45     0.098887097825544
  46    -4.6692689359477e-14
  47      0.24312474881847
  48      0.31795734846819
  49     -0.28782865660048
  50     0.032591962224327
  51    -5.3271758050869e-15
  52     0.011200262000944
  53     -0.23261324661021
  54    3.0501230952041e-14
  55      0.62159344624903
 Sym= A
 Ene=               6
 Spin= Alpha
 Occup=    0.00021
   1    -1.6670492583895e-15
   2    4.2393823281723e-14
   3    4.2420090464108e-14
   4    -6.1817069055377e-14
   5    -1.2151348845804e-13
   6      0.42968912550394
   7    -1.7191769365799e-13
   8    -6.8723432122791e-14
   9      0.28628702507782
  10    -8.8004285069116e-14
  11    1.1214920256443e-15
  12     0.031937615271939
  13    9.413410494571e-15
  14    8.9373468600972e-16
  15    8.2417466799472e-16
  16    -0.023266809913635
  17    7.7623239341198e-15
  18      0.00287104594847
  19    -2.4754665015042e-15
  20    -6.9914135725338e-15
  21    -0.033286259837392
  22    1.1229151511918e-14
  23     0.012592768700939
  24    8.2920562406702e-15
  25    -1.5975666041497e-13
  26    -1.5382630659665e-13
  27    6.7173571142294e-14
  28    -3.2871593647467e-14
  29      0.42754155395078
  30    3.0928458583794e-13
  31    2.5619579006638e-15
  32      0.24335826400688
  33    9.0483083754969e-14
  34    1.194865075776e-14
  35     0.016642966407951
  36    5.8989343176298e-15
  37    1.6416179877846e-14
  38    2.1308837365139e-14
  39     0.039986527404509
  40      2.0019218563e-16
  41    0.0026049949272517
  42    3.1117284703915e-15
  43    -9.6652597573907e-15
  44    0.00092210303514173
  45     5.71944650951e-15
  46     0.020748565571654
  47    -3.7329026516847e-13
  48    -1.1362133130199e-13
  49    -1.4015341437809e-14
  50    2.5752152420153e-14
  51    0.0061999369410556
  52    -1.1747408864612e-14
  53    1.5095888867859e-15
  54    -0.0015922560566594
  55    -1.2403502852772e-15
 Sym= A
 Ene=               7
 Spin= Alpha
 Occup=    0.00021
   1    3.7046548670775e-14
   2    1.4006633983606e-13
   3    2.3127747124883e-13
   4    -1.1636350326059e-12
   5    -4.476218898475e-14
   6     -0.32865213947367
   7    -5.3306040913253e-14
   8    -3.4933262211374e-13
   9     -0.45910497417148
  10    9.8199983943914e-15
  11    1.7311851330485e-13
  12    -0.004241434621393
  13    3.2030931418346e-13
  14    3.7696197146373e-14
  15    -6.3393809272094e-14
  16    -0.037805580977475
  17    -4.8145876285971e-14
  18      0.22301450100722
  19    -1.5385440999525e-14
  20    1.0327481274265e-13
  21    -0.018705019041576
  22    -9.8002818948961e-15
  23      0.13798343881976
  24    -3.6479522910205e-14
  25    -2.0394338942395e-13
  26    -8.3348376427769e-13
  27    1.383899341865e-12
  28    -1.6899688195087e-13
  29      0.62706045351363
  30    1.5511421354194e-13
  31    -6.7338654432288e-14
  32      0.35697422911107
  33    -3.4775922397051e-13
  34    7.5875715136842e-15
  35     -0.11094159143829
  36    -1.0838749620828e-13
  37    -1.1106692497684e-13
  38    3.2714710121116e-14
  39    -0.093937462968131
  40    -3.6998270953114e-14
  41      0.15051705864731
  42    -3.9167047573216e-14
  43    9.3494738443734e-14
  44    -0.014946794574544
  45    3.5390268464164e-14
  46     0.081465407403796
  47    3.0152578405255e-13
  48    4.396417725394e-13
  49    -3.0719202861108e-13
  50    2.9140505971294e-14
  51    0.0012711473665626
  52    -5.9941031889794e-15
  53    -7.4314765476655e-14
  54     -0.10657625446983
  55    1.0472460107494e-12
 Sym= A
 Ene=               8
 Spin= Alpha
 Occup=    0.00013
   1    -0.00056719396165814
   2      0.13135421367138
   3       0.2070913914786
   4     0.084600291976299
   5      0.22358901021922
   6    3.146363227979e-13
   7      0.31694241459748
   8     0.030778781936157
   9    2.122204623434e-13
  10      0.20586083961388
  11    -0.015095437556679
  12    2.1209064850783e-14
  13    -0.0082974210087622
  14    -0.023851190766638
  15    0.0065644348131993
  16    -1.7645275380381e-14
  17    0.0088063428387649
  18    -1.8295128408122e-15
  19    -0.030971250247762
  20      0.02344365575013
  21    -2.5337885634404e-14
  22    0.0038256472936515
  23    1.2902412727453e-15
  24    -0.0088027536117041
  25     0.052355715494616
  26     0.046895450791692
  27    -0.094832790404401
  28     0.004161527986562
  29    3.116980914771e-13
  30     -0.38547066786412
  31     0.021402061755268
  32    1.7209098065352e-13
  33     -0.11884645951464
  34    -0.0094013061771241
  35    1.2609593359301e-14
  36    0.0091911962983743
  37    0.0086011963302893
  38    -0.027038772104076
  39    2.6082035920967e-14
  40    -0.020429804244128
  41    7.7632998419991e-15
  42    -0.011944364702796
  43     0.034320641653913
  44    -3.1654187125909e-15
  45    0.0012983727228656
  46    1.543093854078e-14
  47      0.38885675168399
  48      0.17814641126916
  49      0.02023602072455
  50    -0.026286396650549
  51    4.402638920216e-15
  52    -0.005539294741312
  53    -0.0071086841756545
  54    -2.649574633634e-15
  55    -0.0091025994233683
 Sym= A
 Ene=               9
 Spin= Alpha
 Occup=    0.00013
   1    -0.043461437203025
   2     -0.20024884877016
   3     -0.44272981518535
   4       1.3055691981489
   5    0.0068630103205432
   6    -4.5849242806354e-14
   7      0.20570501233708
   8      0.23605450392559
   9    -2.3964055051104e-13
  10     0.039700804960398
  11      0.73706905827681
  12    4.4065042178007e-14
  13     -0.50661598919267
  14    -0.080307288444529
  15      0.17599697587712
  16    -3.00204371101e-14
  17     0.091076863293146
  18    2.0876855416842e-13
  19     0.017305428791141
  20    -0.062066105127182
  21    -9.1093049844781e-15
  22     0.027725271347884
  23    1.2640436024169e-13
  24     0.024507076265611
  25      0.25655661323623
  26       1.1828795499834
  27      -1.6128642322296
  28     0.086602062601803
  29    3.6384778379727e-13
  30     -0.15717534696083
  31      0.11681866738346
  32    1.3957952948624e-13
  33      0.55538729376544
  34      -0.2692478522172
  35    -1.4995148377099e-13
  36         0.27291175347
  37      0.16564396108798
  38    -0.091958648563206
  39    -1.2407990983566e-13
  40     0.018927379521611
  41    1.4808865282689e-13
  42     0.057903150965754
  43    -0.0058473279710629
  44    -4.7716766251261e-14
  45     -0.02059082029855
  46    7.6285995669769e-14
  47     -0.32335367235256
  48     -0.53210798312989
  49      0.28092257526585
  50    -0.026341054205661
  51    -8.7721763655785e-15
  52     0.023393403117115
  53    -0.026831557429628
  54    -1.07246838948e-13
  55       -1.327238615532
 Sym= A
 Ene=              10
 Spin= Alpha
 Occup=    0.00006
   1      0.20494804554251
   2       0.6147436067558
   3      0.13205587587565
   4     -0.25049282094453
   5     0.014945165354731
   6    -3.2180563320571e-14
   7     -0.22857330369898
   8      -0.2830699183309
   9    -1.2372480809004e-14
  10     -0.52695501383403
  11     -0.09454453128425
  12    3.4172923018091e-15
  13    0.0087040245096116
  14     -0.19555913704214
  15     -0.13979701362404
  16    3.7046625460695e-15
  17      0.33325921082307
  18    -2.1428575671283e-14
  19     0.094516956543007
  20        0.101255038114
  21    4.7171890058194e-15
  22    -0.026403292415845
  23    -7.9592235279774e-15
  24     -0.10085853674128
  25     -0.41318073327951
  26     -0.48706066375935
  27      0.10572896088415
  28     -0.14637554663601
  29    -1.0295155366719e-14
  30     -0.25546457122293
  31     -0.12054230060792
  32    7.1891161414748e-15
  33     -0.51011059934734
  34     0.027169031048562
  35    8.914792787067e-17
  36     0.026804821720284
  37     0.054988225916459
  38     0.092937342496212
  39    3.7816775625731e-15
  40    -0.022274241680786
  41    -1.0090525207232e-14
  42    -0.075580950322409
  43     0.036226074538485
  44    5.7179496224161e-15
  45     0.087327860387942
  46    8.0456356333832e-16
  47     0.063306898111725
  48      0.19059269996427
  49    -0.0057346453899401
  50     0.029079604255828
  51    3.3201294269608e-15
  52      -0.1551528255204
  53     0.018598716072614
  54    3.0531422875795e-15
  55    0.0069931401606264
 Sym= A
 Ene=              11
 Spin= Alpha
 Occup=    0.00006
   1    -0.0034587744095098
   2    0.0093358462651496
   3     0.051597107488145
   4    -0.052970172979714
   5      0.61212934721341
   6    -1.5478131927251e-14
   7     -0.14617234674219
   8      0.41642183762478
   9    -6.3434085183841e-15
  10    -0.073903536881928
  11    -0.043196775348511
  12    -2.2538801061356e-14
  13     0.033345201705811
  14    -0.010336368276138
  15     0.018196051177264
  16    1.1774482580726e-15
  17    0.0025627252320042
  18    -7.134082099903e-15
  19    -0.003190234109545
  20    -0.010165878584931
  21    2.5748045819206e-16
  22    -0.0093507597278508
  23    -6.5778823601938e-15
  24      0.01246012377889
  25     0.022996580451136
  26    0.0022699512948309
  27      0.10816061697535
  28     -0.29459286445784
  29    -4.6255074845575e-14
  30     0.055465838849033
  31     -0.17850356124739
  32    -6.2539047508207e-15
  33     0.018614229926959
  34    -0.0034924160693949
  35    3.217634231832e-14
  36    -0.067744543383108
  37    -0.030170370694041
  38     0.014371978962188
  39    6.0476658995178e-15
  40    -0.0046841756016466
  41    -1.1030931918402e-14
  42    -0.012545108558629
  43    0.0092045555587334
  44    3.3759652896502e-15
  45    0.0032886003067894
  46    -2.9556271630164e-15
  47     -0.22822007053516
  48    -0.0015217830634335
  49    -0.028293225355487
  50     0.026998652803564
  51    8.2097422680875e-16
  52    -0.034276073684473
  53    0.0006357248940196
  54    6.3128616529627e-15
  55      0.14522197700827
 Sym= A
 Ene=              12
 Spin= Alpha
 Occup=    0.00004
   1     0.005436651752807
   2    -0.055366111499934
   3     -0.41891823932806
   4     -0.48920833256975
   5      0.21979342318729
   6    -1.9103222929672e-14
   7    -0.0089963937947124
   8    -0.092278384022996
   9    -1.2986804841368e-14
  10      0.38797050846454
  11      0.15101352663618
  12    -7.0258460472543e-15
  13     0.025627533038272
  14    -0.041748706430763
  15      0.38276537207953
  16    -7.7698138412697e-15
  17    -0.076287521780283
  18    2.2209468589233e-14
  19     -0.17614499759808
  20      0.14840200143713
  21    -8.994564467733e-15
  22    -0.059410452414107
  23    1.0408166494665e-14
  24    -0.061931962921234
  25     -0.27793452156212
  26     0.051190967656819
  27     -0.19064839090969
  28     -0.19859775939798
  29    1.1749774106762e-14
  30      0.38053745454136
  31     -0.21330254280458
  32    -9.6546692385711e-15
  33          0.5708824192
  34      -0.1665303649786
  35    4.163193282891e-16
  36      0.22215440954183
  37      0.21326665761949
  38     -0.19957075249917
  39    -1.2779438599264e-14
  40     -0.14063902744671
  41    -4.8326967595797e-15
  42    -0.053667923732349
  43      0.20181936444117
  44    -1.1002871467844e-14
  45     0.035239643978034
  46    -1.0029880796266e-14
  47        0.625631793151
  48      0.87757242447616
  49      0.11454269017763
  50     0.028345893021178
  51    -6.0467736096839e-15
  52    -0.057980796561218
  53     -0.14964738407919
  54    -7.4644929398934e-15
  55      0.09977703042236
 Sym= A
 Ene=              13
 Spin= Alpha
 Occup=    0.00004
   1    -0.0038472784825126
   2     -0.17947476384747
   3    0.0068813801259451
   4    -0.077356219171325
   5    -0.044543143917289
   6    7.7206906249534e-15
   7      0.41611566026358
   8    -0.028825757021089
   9    1.2624768285936e-15
  10      0.30631350738521
  11     -0.14688373091031
  12    -2.1504688107163e-14
  13    -0.077440441279993
  14    -0.0084569694548104
  15    -0.0063647366403785
  16    2.5826931149815e-15
  17    -0.018445614088274
  18    -1.8748375643464e-14
  19    -0.035790655876498
  20     0.023001488687441
  21    5.1178832631985e-16
  22    -0.024827256188547
  23    -1.0827530864635e-14
  24    -0.0093745236779922
  25     -0.21413107463385
  26     -0.10857897440866
  27    -0.013651377833227
  28     -0.37133358071092
  29    -3.3167734316695e-15
  30    -0.054461178951806
  31     -0.20111319937414
  32    3.4488315706847e-14
  33    -0.0087592074433601
  34    -0.0067363721438451
  35    4.2581022692718e-14
  36     0.022864122931298
  37    -0.043814935540237
  38    -0.030477341355569
  39    1.4498255315583e-14
  40    -0.031672248221466
  41    -1.5455906643039e-14
  42    0.0025162653499564
  43    -0.026563231881547
  44    1.4769973677395e-14
  45     0.021132841059864
  46    -3.118861905364e-15
  47    -0.067410683381107
  48       0.2768470205032
  49    -0.083032334357764
  50     0.040100123829599
  51    5.1840217333626e-15
  52    -0.090115353040682
  53    -0.018582518297111
  54    8.1413134040362e-15
  55      0.16701397329329
 Sym= A
 Ene=              14
 Spin= Alpha
 Occup=    0.00003
   1    -0.027657581080994
   2    -0.081788691659678
   3      0.25447931723935
   4     0.026357374423495
   5     -0.32390664722853
   6    9.2610387269896e-15
   7    -0.090451880798235
   8     0.025721770547438
   9    3.6702154646348e-15
  10      0.27729106137164
  11      0.13983348207158
  12    1.0362093140706e-14
  13      0.02083622950608
  14       0.1918065720171
  15     -0.19581286415368
  16    9.7703186392196e-15
  17      -0.2411736288007
  18    -3.5540831988094e-14
  19     -0.17723027628347
  20     0.046100469173417
  21    1.1429716704297e-14
  22     -0.05149570675698
  23    -7.4418394727574e-15
  24    -0.028192931610397
  25     -0.19140387895113
  26    -0.0022202991884916
  27      0.09186594998399
  28    -0.068375206198995
  29    -3.6192611665372e-14
  30      0.41105374570025
  31    -0.053957773112966
  32    9.9898014678824e-15
  33     -0.36300975431313
  34     -0.12559613541277
  35    -2.4174673678062e-15
  36    -0.034111673617491
  37     -0.16424199874475
  38      0.46352521102385
  39    2.8015862252598e-14
  40      0.01315032939317
  41    -1.7407569627376e-14
  42     -0.28859007517287
  43      0.10392063167892
  44    2.7077355672623e-14
  45      0.13981676221802
  46    5.0435424983674e-15
  47      0.18498288931176
  48      0.30083681290143
  49    -0.033829963370152
  50     0.010493610011329
  51    9.2983823104115e-15
  52     -0.19716909224521
  53    -0.0037682046604091
  54    1.5821866573583e-14
  55     0.079798594973365
 Sym= A
 Ene=              15
 Spin= Alpha
 Occup=    0.00003
   1     0.022127559799785
   2       0.1895094725718
   3     -0.06374847298651
   4     -0.32664189798085
   5     -0.25322237203896
   6    -4.9181544610061e-14
   7     -0.26099296906971
   8     -0.16195125203384
   9    -1.3202822933816e-14
  10     -0.10918629485877
  11      0.10107525675495
  12    1.2921922676597e-14
  13     0.036131273096164
  14    0.0081735820355945
  15    -0.00089774872848606
  16    -2.8203248322209e-15
  17    -0.0071964882250665
  18    5.9177742089575e-15
  19    -0.013613864173832
  20     0.011342205491295
  21    -6.2064898903091e-15
  22     0.011466914429615
  23    4.8260870726199e-15
  24     0.010004151297003
  25     0.006157836047247
  26    -0.0077693624600552
  27      0.26374485895171
  28     -0.21708022198254
  29    -3.4243390387875e-14
  30      0.42753862393327
  31    -0.058228214990244
  32    -2.4230935558116e-14
  33      0.14650259870149
  34    -0.020812818675119
  35    -2.6480158033744e-14
  36      0.15557787063398
  37    -0.0024904368733838
  38     0.013024294431254
  39    1.4482015195032e-15
  40    0.0039537296502967
  41    3.8430468055222e-15
  42     -0.04946054069599
  43    -0.048492766382574
  44    -4.1442130887025e-15
  45     0.014498314742673
  46    5.6668936136512e-16
  47     -0.30500329048666
  48    -0.061056253439924
  49     0.024753988497602
  50     0.032079876183997
  51    -2.4925960575013e-16
  52    -0.049747602760263
  53    0.0019718357204197
  54    -3.6576259168263e-15
  55    -0.089741984903497
 Sym= A
 Ene=              16
 Spin= Alpha
 Occup=    0.00002
   1    8.2564737188747e-15
   2    4.6431181920433e-14
   3    4.5099955158561e-14
   4    -5.2544590730999e-15
   5    -2.2838493729165e-14
   6     0.032009773142531
   7    1.1894072271178e-14
   8    -6.6622279872062e-17
   9    -0.082295913703054
  10    -1.001666735645e-14
  11    1.3911284026265e-14
  12     -0.16860220722511
  13    -5.6648606887126e-15
  14    1.3667508843672e-14
  15    -3.9469584137226e-14
  16    -0.083536468815143
  17    1.6168497516473e-14
  18      0.53574125668826
  19    -1.8855098237037e-15
  20    1.0221619936667e-14
  21    -0.095866918522509
  22    1.0004668334085e-14
  23      0.18669081354297
  24    -2.42435047595e-15
  25    -3.4167185171897e-15
  26    4.9819261837476e-16
  27    3.4499553774681e-14
  28    6.1382482479656e-14
  29      0.56079195558756
  30    4.6325803005281e-14
  31    -3.9613521377364e-14
  32    -0.053219025517916
  33    -7.0981788123089e-14
  34    -2.1169365953631e-14
  35     0.044510825920729
  36    -3.6158660207147e-15
  37    -2.8008791455819e-14
  38    6.2388979591581e-14
  39     -0.21707215263586
  40    -1.5521117245082e-14
  41      0.10483225290912
  42    -3.7062428080745e-14
  43    -7.9502034045148e-15
  44     -0.25701126751329
  45    3.6323152063393e-16
  46     -0.12867885649919
  47    5.1660015378911e-16
  48    -9.8181949019673e-15
  49    -7.5195109253041e-15
  50    -9.6428698345517e-15
  51     -0.12552849527327
  52    -2.841009709598e-14
  53    5.9217872452896e-15
  54     -0.22998199124098
  55    -5.3410542102525e-15
 Sym= A
 Ene=              17
 Spin= Alpha
 Occup=    0.00002