[Molden Format]
made by pyscf v[2.13.1]
[Atoms] (AU)
O   1   8     0.21099695469856     0.00000000000000     2.15462460678861
N   2   7    -0.44776862100326     0.00000000000000    -0.03589262653049
H   3   1     1.18163474748449     0.00000000000000    -1.17386889907833
[GTO]
1 0
 s    8 1.00
                 11720  0.00070964594651845
                  1759  0.0054672722921914
                 400.8   0.027823118610189
                 113.7    0.10474773971146
                 37.03    0.28292084635691
                 13.27    0.44849523869833
                 5.025    0.27081688521277
                 1.013    0.01545029160744
 s    8 1.00
                 11720  -0.00031444341168873
                  1759  -0.0024821376810179
                 400.8  -0.012316355381583
                 113.7  -0.050538917343672
                 37.03   -0.13938490331632
                 13.27   -0.32507749481778
                 5.025   -0.22984830758785
                 1.013     1.0953793467883
 s    1 1.00
                0.3023                   1
 s    1 1.00
               0.07896                   1
 p    3 1.00
                  17.7   0.062679166281506
                 3.854    0.33353656587936
                 1.046    0.74123964163973
 p    1 1.00
                0.2753                   1
 p    1 1.00
               0.06856                   1
 d    1 1.00
                 1.185                   1
 d    1 1.00
                 0.332                   1

2 0
 s    8 1.00
                  9046  0.00069961741342552
                  1357  0.0053860546299287
                 309.3   0.027391021189057
                 87.73    0.10315059198201
                 28.56    0.27857066331743
                 10.21    0.44829484945412
                 3.838    0.27808592839527
                0.7466   0.015431561233271
 s    8 1.00
                  9046  -0.00030499009595337
                  1357  -0.0024080263785077
                 309.3   -0.01194444872518
                 87.73  -0.048925992909017
                 28.56   -0.13447272472496
                 10.21   -0.31511257770011
                 3.838   -0.24285783254964
                0.7466     1.0943822068542
 s    1 1.00
                0.2248                   1
 s    1 1.00
               0.06124                   1
 p    3 1.00
                 13.55   0.058905676772132
                 2.917    0.32046110671427
                0.7973    0.75304206179207
 p    1 1.00
                0.2185                   1
 p    1 1.00
               0.05611                   1
 d    1 1.00
                 0.817                   1
 d    1 1.00
                  0.23                   1

3 0
 s    3 1.00
                 13.01   0.033498726389998
                 1.962    0.23480080117413
                0.4446     0.8136829578829
 s    1 1.00
                 0.122                   1
 s    1 1.00
               0.02974                   1
 p    1 1.00
                 0.727                   1
 p    1 1.00
                 0.141                   1

[5d]
[7f]
[9g]

[MO]
 Sym= A
 Ene=               0
 Spin= Alpha
 Occup=    0.87867
   1    -0.0020633148969261
   2    -0.012963145747272
   3    -0.026299824448654
   4    -0.024427506179562
   5      0.51973868244774
   6    6.1940170528171e-17
   7    -0.091211842046631
   8      0.41041055325338
   9    1.0627515134472e-15
  10    -0.072434980824475
  11      0.11402884064717
  12    -3.9057594559885e-16
  13    -0.016765875222476
  14    -0.001063339152604
  15    -0.0025851197391855
  16    1.246225998901e-16
  17    -0.00076475670081663
  18    6.7602264499403e-17
  19    0.0023985009750233
  20    -0.011042210584271
  21    -7.6269003360233e-16
  22    -0.003033962524313
  23    -3.7421687772081e-16
  24    -0.00040995680309614
  25      0.10771047507243
  26       0.2567832599157
  27      0.14736442299262
  28     -0.35216572140614
  29    4.4424657701529e-16
  30    -0.037218580997312
  31     -0.25483909899097
  32    -1.1349858731709e-15
  33    -0.0071997880773504
  34    -0.065044083006079
  35    1.0203305905938e-15
  36    -0.0029251605994645
  37    -0.011438806784249
  38     0.027472298579269
  39    6.4002521579306e-17
  40    -0.0093002424205062
  41    -8.2951149680397e-18
  42    0.0096907233578708
  43    0.0056859943820331
  44    -7.5880287581038e-16
  45    -0.0059943466605542
  46    -1.8288214588897e-17
  47     -0.26200003322639
  48       -0.155913413289
  49    -0.029395957114136
  50    0.0067499693388522
  51    9.0844514767251e-17
  52    -0.010632272493023
  53    -0.014808037104417
  54    -2.0550712514142e-16
  55     0.024398580140475
 Sym= A
 Ene=               1
 Spin= Alpha
 Occup=    0.87867
   1    -5.4631437152193e-16
   2    -5.4021228132405e-16
   3    1.0985225296687e-14
   4    3.0953734148711e-14
   5    -3.857559238321e-15
   6      0.48899530740458
   7    5.0948019452507e-16
   8    -5.6117949237517e-15
   9      0.40188255684695
  10    -7.5166136669583e-15
  11    3.3027977503647e-16
  12      0.15272908353284
  13    -7.974539833396e-15
  14    5.8878312984064e-17
  15    -1.0744452743339e-16
  16    0.0072301963323726
  17    -1.6608203755763e-17
  18    0.0019739424324781
  19    1.7280277174768e-15
  20    9.3823607706603e-16
  21    -0.0019226709704619
  22    6.3764052987783e-16
  23    0.0063074790756764
  24    6.8246843907799e-16
  25    -1.2231527360657e-15
  26    -2.2150002330643e-14
  27    -4.1170879363061e-14
  28    3.8635191083958e-15
  29      -0.5027430990149
  30    8.7742846258486e-16
  31    -2.4485807717087e-15
  32     -0.43936187597272
  33    -8.245252181256e-15
  34    -8.6055893732097e-15
  35     -0.15416071572694
  36    -3.8527419312151e-15
  37    -6.9811458973344e-17
  38    -2.5914100048854e-16
  39     0.015740310598322
  40    -3.8216819381537e-16
  41    -0.016053923080071
  42    -3.4151857571266e-15
  43    -7.910589645867e-16
  44    0.0080153544789669
  45    -9.8021668743752e-16
  46     -0.02343362860438
  47    2.3956160263905e-15
  48    1.2641205923581e-14
  49    8.8451339178438e-15
  50    -3.7534194407645e-16
  51    -0.018249051732584
  52    5.5534916164247e-16
  53    -2.9570751607549e-15
  54    -0.032122208275156
  55    3.390543780152e-16
 Sym= A
 Ene=               2
 Spin= Alpha
 Occup=    0.00236
   1    -0.0075160575848938
   2    -0.045800551238212
   3    -0.040610565163795
   4     0.096795419848399
   5      0.65674970462416
   6    -1.0081414242266e-15
   7    -0.069621863232445
   8     0.067474644195554
   9    -2.5214485171738e-17
  10    -0.0030646594519515
  11    -0.052729222272071
  12    -7.5920710822829e-16
  13    -0.0081471496896672
  14     -0.01842520845982
  15     0.042684512017739
  16    1.4310658226279e-16
  17    0.0083353061571011
  18    2.4240256005847e-16
  19    -0.030009813952335
  20     0.099984536955932
  21    -7.8338966350992e-16
  22     0.022617695581713
  23    -6.4055518909151e-16
  24    -0.0052220568841286
  25     -0.13196373757057
  26     -0.22835564498862
  27     -0.20295751642879
  28      0.49651081688945
  29    1.4364979518802e-15
  30     0.094567235848957
  31    -0.0022280048591375
  32    -8.2057830319452e-17
  33      0.17803882695302
  34    -0.023162777953466
  35    4.3343233068517e-16
  36     0.011570185110774
  37    -0.034142416753687
  38     -0.08687053906382
  39    -4.5623824494237e-17
  40     -0.08501773459858
  41    -1.8484003152986e-17
  42      0.03912912741153
  43    -0.079391725624268
  44    -5.4660248211319e-16
  45     -0.13400245536023
  46    2.3499379014667e-16
  47      0.35494189063535
  48      0.17234393876897
  49     0.034440041250294
  50    -0.019650718581546
  51    2.9392082053067e-17
  52     0.025192247650328
  53     0.017198107324002
  54    -8.7083107521537e-17
  55    -0.026761299419016
 Sym= A
 Ene=               3
 Spin= Alpha
 Occup=    0.00236
   1    1.1324676673953e-15
   2    1.7788620398076e-15
   3    -1.7452846351802e-14
   4    -3.8109095756702e-14
   5    4.3923187784543e-16
   6      0.69160604922126
   7    -7.8584993552134e-17
   8    1.5774215352447e-15
   9      0.15515877282853
  10    1.0859017327074e-14
  11    2.4791328079589e-15
  12     -0.13470075497422
  13    6.0306967406078e-15
  14    1.251885544821e-16
  15    -3.0250528271882e-17
  16     0.042010583750626
  17    -2.6285990014144e-17
  18     0.017620152036073
  19    -2.047115683032e-15
  20    -9.8386193409912e-17
  21      0.13593896938433
  22    -8.0460202438372e-17
  23     0.028539472581292
  24    -8.9930855318492e-16
  25    -1.3648940047955e-15
  26    1.8554595940155e-14
  27    3.5792112703746e-14
  28    3.8690685312687e-16
  29      0.48198814956202
  30    1.8855783500282e-16
  31    5.3006151459678e-15
  32      0.10337457447307
  33    1.3994227339847e-14
  34    4.9876659881301e-15
  35      0.17521547698469
  36    1.1838251976477e-14
  37    6.2184514256068e-16
  38    1.7901876866283e-16
  39     -0.13000577596001
  40    1.508478342583e-16
  41     0.081199706912822
  42    4.6694740463258e-15
  43    4.1725196865976e-15
  44     -0.26041509105013
  45    8.5912157701763e-16
  46     0.035154391417074
  47    5.4896463181599e-16
  48    -3.6700740101542e-15
  49    -6.1529195268008e-16
  50    -1.6847290954316e-16
  51    -0.00022953619920824
  52    -4.5383217535875e-16
  53    -1.3061035984169e-15
  54     0.025860845434479
  55    4.1014131076205e-16
 Sym= A
 Ene=               4
 Spin= Alpha
 Occup=    0.00108
   1    8.7581295674237e-16
   2    1.7760462476511e-15
   3    -1.2393661490577e-14
   4    -2.4185139821787e-14
   5    -1.4063371992263e-15
   6     -0.47074419515765
   7    1.1259119185701e-16
   8    2.5303733397647e-15
   9     -0.29011116647204
  10    8.8457108002026e-15
  11    8.5859152292968e-17
  12    -0.0013213184746495
  13    5.8166242519601e-15
  14    3.4381573589125e-17
  15    -1.8994298226306e-17
  16     -0.01556067799433
  17    -1.2922759609121e-17
  18    -0.0086023472299996
  19    -1.9577360637597e-15
  20    -1.2165081619932e-15
  21    0.0022910604598318
  22    -2.9236181324626e-16
  23    0.0043979335818259
  24    -6.6918131294728e-16
  25    -8.5032718066646e-16
  26    2.0780439892616e-14
  27    2.934648189385e-14
  28    -1.2385549012237e-15
  29      0.58758069529132
  30    -8.4655881253187e-17
  31    6.5606813496946e-15
  32      0.33699601278933
  33    9.1998843517511e-15
  34    6.1115903123968e-15
  35    -0.032164121364472
  36    2.8890671554675e-15
  37    2.5661671395333e-16
  38    2.9830838544523e-16
  39    -0.061669081419931
  40    1.1916943488179e-16
  41     -0.18196849055656
  42    3.105644069779e-15
  43    1.3784613284234e-15
  44    -0.00032465917716876
  45    1.1941393153246e-15
  46     -0.10027560994047
  47    -1.7387637496865e-15
  48    -1.099907966254e-14
  49    -4.8043122006195e-15
  50    5.3663698569142e-16
  51      0.08960179339567
  52    -5.5524218262793e-16
  53    2.6736644786097e-15
  54     0.014604289937224
  55    -1.3613108250165e-15
 Sym= A
 Ene=               5
 Spin= Alpha
 Occup=    0.00108
   1    -0.0013094834292518
   2    -0.033844376852764
   3     -0.12739557503565
   4    -0.048531729943006
   5      0.40864608081045
   6    3.3882791081786e-15
   7    -0.063484064395565
   8      0.30898412279597
   9    4.4580576594111e-15
  10    -0.0086037620709633
  11     0.057642953144916
  12    1.5080952272129e-15
  13    0.0013745804538886
  14    -0.0072267347972949
  15    0.0082443779362464
  16    -2.7650071777726e-17
  17    -0.0019457673354085
  18    -9.0626757447244e-18
  19    -0.0049211528025004
  20    -0.0073327041432651
  21    -1.0825323740605e-15
  22    -0.015004464725339
  23    -2.4187700563832e-16
  24    0.0071985830274381
  25      0.25823114034423
  26      0.43879210649464
  27       0.1083973169272
  28     -0.43258232799828
  29    -5.4149397436668e-15
  30     -0.10994735705663
  31     -0.28509940616357
  32    -4.5001838613756e-15
  33     0.025799508834593
  34    -0.040910492326328
  35    -1.0068057632776e-15
  36    0.0061025865474044
  37    -0.0053202031531581
  38     0.022205076728595
  39    7.0022472803972e-16
  40      0.02286290611008
  41    -3.8904687729163e-16
  42     0.031036522596218
  43      0.01738204724372
  44    4.4563810361038e-16
  45    0.0017249913509278
  46    -3.4854812436325e-16
  47     -0.17079753878351
  48    -0.077077678702921
  49    -0.013898883064439
  50     0.001202419587041
  51    -7.5975896194863e-17
  52    -0.014409874096605
  53    -0.011381218249704
  54    -4.7848509113026e-16
  55     0.017718229599064
 Sym= A
 Ene=               6
 Spin= Alpha
 Occup=    0.00030
   1     0.018565714575633
   2     0.026418701548671
   3      0.04931138160777
   4     -0.14023331165231
   5     -0.19104270836556
   6    -3.3570776470769e-15
   7     0.035496903911877
   8      0.18707712991592
   9    -2.1530057983691e-16
  10    -0.017134344935642
  11     0.085081325093417
  12    5.8359568837258e-16
  13    0.0058037434348631
  14     0.039859689676883
  15    -0.098106083472794
  16    9.3365953006338e-17
  17     -0.01919932941327
  18    3.5632053700921e-16
  19      0.06004665890217
  20     -0.17955556336105
  21    3.608540340698e-16
  22    -0.043867162099191
  23    6.5057458813454e-16
  24    0.0080146398566174
  25    -0.0087340770746876
  26     0.041157910206164
  27      0.26864682451561
  28    -0.062097854627482
  29    -2.6403981230147e-15
  30     -0.37611086457865
  31      0.38554990992077
  32    -1.0251512622969e-15
  33     -0.32421466023357
  34     0.077579839549015
  35    -6.59827525268e-17
  36    -0.016184071064437
  37     0.021808415879363
  38      0.11410022564799
  39    -1.0770738251505e-15
  40      0.21667626938816
  41    -1.6836342423618e-16
  42    -0.073843376154827
  43      0.12546803343335
  44    -1.2915330816877e-15
  45      0.25392074515577
  46    -1.1899342412151e-16
  47      -0.1027773745233
  48     -0.15974632062898
  49    -0.048302236265453
  50    0.0043401738189601
  51    -4.6454926958199e-16
  52    -0.028940656516418
  53    -0.034430295695579
  54    -1.0601861841422e-16
  55     0.042570813652662
 Sym= A
 Ene=               7
 Spin= Alpha
 Occup=    0.00030
   1    3.9538093147661e-16
   2    1.3734090812491e-15
   3    -4.3462034830277e-16
   4    -2.6514848610006e-14
   5    3.4985251423431e-15
   6     0.096237382810219
   7    -7.0364989102776e-16
   8    3.370477662318e-16
   9    -0.096619696990659
  10    1.2166190021343e-15
  11    1.6083249450189e-15
  12     -0.18816393305594
  13    4.3992729367336e-15
  14    2.3869318165376e-16
  15    -1.3067257739914e-16
  16     0.073423489075977
  17    1.5106596542478e-16
  18     0.053748248974309
  19    -5.5832363626877e-16
  20    -5.9161154627903e-16
  21      0.21310345605923
  22    -2.7302909898841e-16
  23    0.0089137878904443
  24    -1.5482485125472e-15
  25    -4.3697289949444e-15
  26    1.1930773642028e-14
  27    2.6819048039816e-14
  28    2.8718893190587e-15
  29     -0.10087433032112
  30    -2.6205197848061e-15
  31    4.3534349901869e-15
  32     -0.24342971981881
  33    -3.7100872330586e-15
  34    2.4538891082716e-15
  35      0.17027948948074
  36    1.0250181873692e-14
  37    1.5230747209057e-15
  38    2.7071829269079e-17
  39     -0.36901548016038
  40    2.0284347755531e-15
  41      0.15916530941934
  42    2.1864381814702e-15
  43    -1.1219560856217e-15
  44     -0.46585922291883
  45    3.3907791472848e-15
  46      0.10854706798498
  47    -4.8103650062607e-15
  48    -1.1796518978837e-14
  49    3.0968474935844e-15
  50    4.7398547565883e-16
  51    -0.050888452666079
  52    -1.047019947075e-15
  53    8.5474351762385e-16
  54     0.038792432002996
  55    -1.393631044243e-15
 Sym= A
 Ene=               8
 Spin= Alpha
 Occup=    0.00016
   1    6.9460803528929e-16
   2     1.24979073441e-16
   3    -1.3368204923003e-14
   4    -5.7230025771887e-14
   5    -2.0585241226452e-15
   6      0.32583179460317
   7    -1.1987517081094e-15
   8    3.589624812568e-15
   9      0.29693746067062
  10    1.0287334659059e-14
  11    3.0481482242473e-15
  12      0.07817707346365
  13    1.3739661700708e-14
  14    3.8437800074042e-16
  15    -4.8451166542335e-16
  16    -0.035639742154544
  17    -1.5931129347826e-16
  18    -0.0009390438672497
  19    -1.966038019733e-15
  20    -2.1049858665838e-15
  21    -0.0034425099988436
  22    -6.413374877976e-16
  23       0.0349574845002
  24    -5.4909767711864e-16
  25    -5.6238402000753e-16
  26    1.8310184470825e-14
  27    6.4395805198776e-14
  28    4.590423128404e-16
  29      0.28460667361732
  30    -7.217014921884e-16
  31    7.4129130977383e-15
  32      0.34221272565544
  33    1.2474516934724e-14
  34    1.0368712664178e-14
  35     0.065839600067397
  36    1.0712513179057e-14
  37    3.2919845771835e-16
  38    9.9330740149837e-16
  39     0.067979815063262
  40    1.4898058452481e-15
  41      0.16441770845212
  42    3.6983278060513e-15
  43    2.977280386013e-15
  44      0.01140559719887
  45    2.6015105970189e-15
  46     0.090789343017813
  47    -4.1051086685654e-16
  48    -7.3394939564781e-15
  49    -1.0292235928161e-14
  50    4.7801815675984e-17
  51     -0.00130683616247
  52    -5.2340380153864e-16
  53    -3.1649121428527e-17
  54    -0.031185095692187
  55    1.3437762528465e-15
 Sym= A
 Ene=               9
 Spin= Alpha
 Occup=    0.00016
   1    -0.019337202437526
   2     -0.10221031478491
   3     -0.29733553286624
   4      0.52174849838455
   5    -0.0033133786410544
   6    1.5173699158316e-15
   7      0.16907655094075
   8      0.48700042994976
   9    -3.5100396310535e-15
  10    -0.059307323699962
  11      0.34010225595673
  12    2.326463441383e-15
  13      -0.1632938377998
  14    -0.0069507493335224
  15    0.0054596220424462
  16    -2.0026591716849e-17
  17    -0.033085115611097
  18    3.1666059322135e-16
  19     0.013045910219708
  20     0.023273138122491
  21    1.3293570643816e-15
  22    -0.033115433607847
  23    -1.8441795336678e-16
  24     0.074753004666566
  25      0.16649587211507
  26     -0.14278019966597
  27     -0.93543618596952
  28    -0.016163439507326
  29    4.1437943225129e-16
  30    -0.00093878804048731
  31     -0.33016929575296
  32    -5.3258212811508e-16
  33      0.55341092387935
  34     -0.23139275846433
  35    -4.8566979347688e-16
  36     0.040445852348057
  37     -0.20617969568142
  38     0.034819583209575
  39    -8.0679316772159e-16
  40     -0.34678876092375
  41    1.4889004303192e-15
  42      0.15575134716741
  43     0.043276515058273
  44    -1.7553947824965e-15
  45      -0.5370490644895
  46    2.9839185745934e-15
  47      0.31991642998753
  48      0.46833723413094
  49     0.093017053126392
  50    0.0068984996836546
  51    -5.5563264696909e-16
  52     0.097718458794133
  53      0.20622747193676
  54    -1.4541303365677e-15
  55      0.10085670413384
 Sym= A
 Ene=              10
 Spin= Alpha
 Occup=    0.00007
   1    -4.4671947156202e-16
   2    5.2032402082539e-16
   3    3.6270670212911e-15
   4    -5.6368706933728e-14
   5    -1.5391956802244e-15
   6     -0.42815052649198
   7    -1.8046560347372e-15
   8     5.43696286815e-15
   9     0.074410027711544
  10    1.3371351661531e-15
  11    4.1106056945278e-15
  12      0.18750056623494
  13    1.7235284142813e-14
  14    9.4069148039198e-17
  15    8.8803902456736e-16
  16    -0.034706765052286
  17    -2.2020505305373e-16
  18      0.11099391452285
  19    -2.2220704933008e-15
  20    -1.4349592334921e-15
  21       0.1001883973098
  22    -1.5140048975445e-15
  23      0.12231220353543
  24    -2.3862550570245e-15
  25    -4.1939986557315e-15
  26    2.8547800373002e-14
  27    8.2677806061459e-14
  28    8.6880182879652e-15
  29     -0.28724888381642
  30    -4.0411017266399e-16
  31    1.0117617723334e-15
  32      0.35632997323684
  33    -2.09257548304e-15
  34    1.2392756094468e-14
  35      0.17169132539008
  36    4.9528848210796e-15
  37    -1.3034813105356e-16
  38    -2.7147369705055e-16
  39     -0.32412264590153
  40    2.1882207753973e-16
  41      0.45434795175463
  42    3.7126999441687e-15
  43    -6.517687459709e-15
  44      -0.2169446449337
  45    2.5204525063902e-16
  46      0.36357121174533
  47    -7.3744316771349e-15
  48    -3.2329557246043e-14
  49    -1.7284424295978e-14
  50    9.3422088541707e-16
  51     -0.25580635523804
  52    -9.7743384478809e-16
  53    9.1837054350849e-15
  54     -0.16193007404869
  55    4.3344475409112e-16
 Sym= A
 Ene=              11
 Spin= Alpha
 Occup=    0.00007
   1     0.019120066972283
   2    -0.027599585721883
   3      0.12579142991979
   4       -0.150005982943
   5      0.53338507849867
   6    -1.8198392846305e-15
   7    0.0089760116704964
   8      0.16874267466676
   9    4.9048767432509e-15
  10     0.035428971863639
  11     -0.12788668712293
  12    7.9607776300494e-16
  13     0.062482902916452
  14    -0.0059787858516653
  15    -0.013192786105225
  16    4.7872369669507e-16
  17    -0.024456771869678
  18    -4.8280078941434e-16
  19    0.0010148697323964
  20     -0.04329870461323
  21    -6.0835276356071e-16
  22    -0.0029201090223512
  23    -5.5953795389085e-16
  24    -0.015866580810872
  25     -0.20206055625523
  26    -0.079191767013305
  27      0.34741757578587
  28      0.28547771873639
  29    7.8069903516763e-15
  30     -0.22998835007777
  31      0.22705090660921
  32    -7.0824960793735e-15
  33     -0.31118145616034
  34      0.10754420038659
  35    -3.310470962563e-15
  36    -0.036454817416604
  37     0.030805871446796
  38    -0.012672116579021
  39    2.0589237937316e-15
  40     0.066802258604216
  41    -1.7520495954108e-15
  42    -0.047718832614509
  43    -0.075343087538597
  44    1.6075638938997e-15
  45      0.15851703337882
  46    -2.220315457463e-15
  47    -0.035146689677958
  48     -0.18430966148797
  49    -0.043314270786083
  50    -0.0018113974192451
  51    1.4870531063821e-16
  52    -0.025120241386402
  53    -0.053663526352613
  54    3.8508696088893e-16
  55    -0.024899429591271
 Sym= A
 Ene=              12
 Spin= Alpha
 Occup=    0.00005
   1    0.0046500149562243
   2     0.057847763130549
   3     -0.22821546581005
   4     -0.29445422038803
   5     -0.17809234420295
   6    3.2020319504781e-15
   7     -0.22983164060541
   8      0.11472219430229
   9    -2.0525147095946e-15
  10    0.0036792946530326
  11      0.11519049134931
  12    -1.986897923193e-15
  13     0.035453876871888
  14    -0.0052275423143658
  15     0.045905365714276
  16    2.2721689401974e-16
  17    -0.00064133330516847
  18    -1.6360282036908e-15
  19    -0.051883753873299
  20    -0.00022941212313731
  21    -3.7444829398702e-16
  22    0.0065727862620205
  23    -2.1450308695845e-15
  24    -0.010850472988134
  25     0.070277853400414
  26        0.777848775974
  27      0.37556539077727
  28      0.71447973511151
  29    2.2895899805413e-15
  30     0.086780783568437
  31     -0.12747576730097
  32    -4.1144831890576e-15
  33    0.0087769393005051
  34    -0.037507341386499
  35    -1.4445915455078e-15
  36     0.032571254672455
  37     0.074067787991446
  38    0.0013709068031872
  39    2.2225813113808e-15
  40     0.076684322602955
  41    -4.1457988285034e-15
  42     0.011728150528555
  43     0.097103755515807
  44    1.7892157557711e-15
  45      0.05989906083382
  46    -3.1841006424196e-15
  47     -0.33237666853355
  48      -0.2195361585707
  49    -0.031832046602494
  50    -0.016924000815327
  51    3.0446867584521e-15
  52    -0.0022362089799857
  53    -0.054532137765263
  54    2.3110958445228e-15
  55     0.046491743482983
 Sym= A
 Ene=              13
 Spin= Alpha
 Occup=    0.00005
   1    1.0234521967756e-15
   2    1.4474441502937e-15
   3    -1.9852633157907e-14
   4    9.2351369087814e-15
   5    -3.1271811119049e-15
   6     -0.04362900980217
   7    1.9618872214864e-15
   8    -3.1094623399127e-15
   9       0.1341556032303
  10    1.4601479802164e-14
  11    3.9989320291941e-15
  12      0.15732103723057
  13    -6.6519476546957e-15
  14    2.3457726228034e-16
  15    4.6911687872136e-16
  16      0.08311061405458
  17    9.2249433705985e-16
  18    -0.033321573565479
  19    -2.5020110978407e-15
  20    1.1181850473839e-15
  21      0.21224256814944
  22    5.9919040415142e-16
  23    -0.064910848720195
  24    4.5137772244702e-16
  25    5.1880893277373e-15
  26    2.0755627904792e-14
  27    -3.109583573984e-14
  28    -1.749486862448e-16
  29       0.8713501857468
  30    4.6319068285807e-15
  31    9.8846062027867e-15
  32     -0.75359472743701
  33    1.4547394474459e-14
  34    -1.4392446311645e-14
  35      -0.4220132767864
  36    1.5279626370506e-15
  37    1.0632544585966e-15
  38    1.7948573594179e-16
  39      0.12702011471133
  40    -2.6169509520424e-16
  41    -0.096058463313612
  42    -6.2933615982599e-17
  43    5.5975597137633e-15
  44    -0.00016151380944707
  45    1.6177095869483e-15
  46    -0.031773337723366
  47    -2.5888463374687e-15
  48    7.0628532374812e-15
  49    1.6122369395974e-14
  50    -9.2983543167549e-17
  51     0.013608214283806
  52    -1.0258696370686e-15
  53    -2.7313831826186e-15
  54    -0.0021764930182522
  55    -2.7302666461646e-15
 Sym= A
 Ene=              14
 Spin= Alpha
 Occup=    0.00004
   1    -1.7828487844484e-16
   2    -2.2852686130615e-15
   3    -9.0880670653592e-15
   4    -4.6116699097793e-14
   5    -1.3369816477648e-15
   6     -0.52186566698101
   7    5.159473973626e-15
   8    4.1150046627674e-15
   9     -0.33021081223201
  10    1.0764980449133e-14
  11    1.7432581431572e-15
  12     0.085863100225133
  13    1.4462231956924e-14
  14    5.2746332885038e-16
  15    2.2191455296328e-16
  16    -0.026665557763791
  17    -5.0951263500377e-16
  18    -0.099907096070754
  19    -1.9343987263247e-15
  20    -6.7800692341477e-16
  21      0.11548946484999
  22    -4.6601028790989e-16
  23       0.2253972397411
  24    -2.9504436974044e-16
  25    1.1966803765815e-15
  26    1.8177240886366e-14
  27    5.626412279141e-14
  28    1.5255106292248e-15
  29     -0.24918618691509
  30    5.063579440542e-15
  31    4.1763309349397e-15
  32      0.44478719247127
  33    9.3559405178995e-15
  34    8.397679803623e-15
  35      0.13394617794887
  36    5.1598188517617e-15
  37    -6.3160535134967e-16
  38    -2.2269779843589e-16
  39      0.75941834495002
  40    1.3773128328689e-16
  41     0.058948673423937
  42    1.3175838774117e-15
  43    1.4056874357462e-15
  44      0.41493761611713
  45    6.8827530403293e-16
  46     0.055437778447493
  47    -4.0364947783471e-16
  48    -6.9814156833636e-15
  49    -1.0071431243416e-14
  50    6.0799890989852e-16
  51      0.09638480452704
  52    4.2343303250444e-17
  53    1.6498515042713e-15
  54     -0.11175055114808
  55    2.1756092040614e-15
 Sym= A
 Ene=              15
 Spin= Alpha
 Occup=    0.00004
   1    -0.0039361117186514
   2      0.13042519358648
   3       0.2480652088082
   4       -0.164968609409
   5      0.31831706997566
   6    -2.5406233837865e-15
   7     -0.42163167001271
   8     0.076860313953221
   9    3.5681059751737e-15
  10     -0.24421529563963
  11    -0.099949484186624
  12    1.6072722558087e-15
  13     0.048605204495946
  14     0.010642507342535
  15     0.028459689241974
  16    -1.3951986629382e-16
  17     0.017024594880291
  18    -3.6426632329604e-16
  19     0.015123258132223
  20    -0.015458262014232
  21    -1.201684372245e-15
  22    0.0087353297153371
  23    -1.5145864656246e-15
  24     -0.01803679450153
  25     -0.14880261546536
  26     -0.21530086794462
  27      0.29333495760479
  28      0.11007956090126
  29    7.2975283304559e-16
  30      0.44121909344393
  31     0.067626551003561
  32    -1.622841074452e-15
  33    -0.056789676921948
  34     0.081164326582401
  35    -2.3041863966048e-15
  36     -0.02679452557108
  37     0.065602721304762
  38    -0.014571893288722
  39    -2.0191237536545e-15
  40      0.04287585763842
  41    3.0746410253676e-16
  42    -0.046131786482802
  43    -0.080900561329296
  44    -1.5734317316418e-16
  45      0.11543820891872
  46    7.9142490457466e-16
  47     -0.29516962557176
  48     -0.26367424988174
  49    -0.041489944480926
  50     0.016352613138694
  51    -1.4767160382947e-16
  52    -0.022402987786609
  53      -0.0352493461265
  54    -1.8611435298954e-16
  55     -0.02548727757163
 Sym= A
 Ene=              16
 Spin= Alpha
 Occup=    0.00003
   1    0.0010090952425643
   2     -0.22606351275436
   3     -0.36178150239066
   4    0.0019863343042549
   5     0.065493027297828
   6    2.0859577980683e-15
   7      0.25519926111745
   8      0.11617893807017
   9    2.1062243757172e-15
  10      0.16568522756441
  11     -0.02471429040623
  12    -6.511176474954e-16
  13     0.017364280862252
  14    -0.0098863537541845
  15     0.045171161976151
  16    8.5657954186322e-19
  17    -0.015561859131609
  18    1.8172870713772e-15
  19    -0.018998775428314
  20     0.073808283756548
  21    -1.8481721070783e-15
  22     -0.01972472032481
  23    1.5532650755622e-15
  24    -0.014092306405954
  25      0.21178726284702
  26      0.38944219052546
  27    -0.032365086036487
  28      0.10229512771859
  29    -2.279462117032e-16
  30     -0.22406772239822
  31     -0.35954548747046
  32    -6.3041406546517e-16
  33     0.095220260352636
  34    -0.055780154271522
  35    -4.9919462405548e-16
  36       0.0109616168826
  37    -0.067876009800617
  38     -0.14738363960477
  39    -3.9675428306481e-15
  40    -0.036921796589527
  41    -1.9587507749202e-15
  42      0.06632928127985
  43    -0.085806141551151
  44    -1.5687618347305e-15
  45     -0.13195614255433
  46    -2.5304204606462e-15
  47      0.38400791874489
  48      0.12910101346945
  49     0.018489988702791
  50    -0.034633398988659
  51    -4.399594096796e-16
  52     0.034900003583101