[Molden Format]
made by pyscf v[2.13.1]
[Atoms] (AU)
O   1   8     0.21099695469856     0.00000000000000     2.15462460678861
N   2   7    -0.44776862100326     0.00000000000000    -0.03589262653049
H   3   1     1.18163474748449     0.00000000000000    -1.17386889907833
[GTO]
1 0
 s    8 1.00
                 11720  0.00070964594651845
                  1759  0.0054672722921914
                 400.8   0.027823118610189
                 113.7    0.10474773971146
                 37.03    0.28292084635691
                 13.27    0.44849523869833
                 5.025    0.27081688521277
                 1.013    0.01545029160744
 s    8 1.00
                 11720  -0.00031444341168873
                  1759  -0.0024821376810179
                 400.8  -0.012316355381583
                 113.7  -0.050538917343672
                 37.03   -0.13938490331632
                 13.27   -0.32507749481778
                 5.025   -0.22984830758785
                 1.013     1.0953793467883
 s    1 1.00
                0.3023                   1
 s    1 1.00
               0.07896                   1
 p    3 1.00
                  17.7   0.062679166281506
                 3.854    0.33353656587936
                 1.046    0.74123964163973
 p    1 1.00
                0.2753                   1
 p    1 1.00
               0.06856                   1
 d    1 1.00
                 1.185                   1
 d    1 1.00
                 0.332                   1

2 0
 s    8 1.00
                  9046  0.00069961741342552
                  1357  0.0053860546299287
                 309.3   0.027391021189057
                 87.73    0.10315059198201
                 28.56    0.27857066331743
                 10.21    0.44829484945412
                 3.838    0.27808592839527
                0.7466   0.015431561233271
 s    8 1.00
                  9046  -0.00030499009595337
                  1357  -0.0024080263785077
                 309.3   -0.01194444872518
                 87.73  -0.048925992909017
                 28.56   -0.13447272472496
                 10.21   -0.31511257770011
                 3.838   -0.24285783254964
                0.7466     1.0943822068542
 s    1 1.00
                0.2248                   1
 s    1 1.00
               0.06124                   1
 p    3 1.00
                 13.55   0.058905676772132
                 2.917    0.32046110671427
                0.7973    0.75304206179207
 p    1 1.00
                0.2185                   1
 p    1 1.00
               0.05611                   1
 d    1 1.00
                 0.817                   1
 d    1 1.00
                  0.23                   1

3 0
 s    3 1.00
                 13.01   0.033498726389998
                 1.962    0.23480080117413
                0.4446     0.8136829578829
 s    1 1.00
                 0.122                   1
 s    1 1.00
               0.02974                   1
 p    1 1.00
                 0.727                   1
 p    1 1.00
                 0.141                   1

[5d]
[7f]
[9g]

[MO]
 Sym= A
 Ene=               0
 Spin= Alpha
 Occup=    0.47115
   1    0.0034601932359514
   2    -0.0028297353538189
   3    -0.032627386227753
   4    -0.024395762520047
   5      0.25898949193247
   6    -2.4186741250431e-16
   7     -0.26610595449598
   8       0.1837239619525
   9    3.8691652660639e-16
  10     -0.16736217843802
  11     0.016323844277761
  12    1.3739910345761e-16
  13    -0.0090465408177931
  14     0.014901854782164
  15    -0.014723491060247
  16    3.7362383087381e-17
  17    -0.0058116124389086
  18    -2.0145795158257e-17
  19     0.016635641418651
  20    -0.021278913195326
  21    -2.8206498447427e-16
  22    -0.0020556892727741
  23    -2.6420276028582e-16
  24     0.004172383345306
  25     -0.14704643393136
  26     -0.28219016382734
  27    -0.049186681250814
  28      0.40873603430943
  29    -7.5792181703626e-17
  30      0.13950043702347
  31      0.21814631120028
  32    -6.936844300185e-16
  33     0.076003101926765
  34     0.020969827482546
  35    -1.7493198405496e-17
  36     0.005734650219956
  37    -0.013659254712138
  38     0.031492818185928
  39    1.072225701021e-16
  40     0.011853057104547
  41    -1.5015374226152e-16
  42    -0.0036227414706049
  43    0.0057513647144363
  44    -6.2292663973537e-16
  45    1.9310864088905e-05
  46    -1.2135701410101e-17
  47     0.096099173620561
  48     0.025764436408585
  49    0.0032884614902861
  50    0.00063470999387601
  51    6.5356061198489e-17
  52     0.012404033913382
  53     0.013541654455878
  54    5.3649047957964e-17
  55    0.0047382831767826
 Sym= A
 Ene=               1
 Spin= Alpha
 Occup=    0.47115
   1    -9.5928698326257e-16
   2    -1.9331993332177e-15
   3    1.4146453965338e-14
   4    3.3342876842223e-14
   5    8.8416247181503e-17
   6      0.47057997786904
   7    1.1740468303069e-15
   8    -4.2531535755726e-15
   9      0.40157281664762
  10    -9.8132927656787e-15
  11    1.1362071807043e-15
  12       0.1385416563433
  13    -1.130210750769e-14
  14    1.7142766541876e-16
  15    6.4324426279293e-17
  16     0.005511431011991
  17    2.2693799323583e-17
  18    0.0018100134835687
  19    2.5595982007897e-15
  20    1.2739374703019e-15
  21    -0.0066063314319887
  22    6.0035653846928e-16
  23    0.0028555325964437
  24    9.4091956050788e-16
  25    8.0993545719416e-16
  26    -2.3624424621762e-14
  27    -5.5119439022449e-14
  28    2.0396082839506e-16
  29     -0.50943046174932
  30    1.2467022788325e-15
  31    -6.7225370139671e-15
  32     -0.45644393837462
  33    -1.0894287506039e-14
  34    -1.1881908740203e-14
  35     -0.17567091215294
  36    5.7527480451613e-16
  37    -6.0019154825206e-16
  38    -1.1575538639286e-16
  39    0.0086431095744285
  40    -6.2490883331624e-16
  41    -0.020288600076069
  42    -4.6603777775823e-15
  43    -9.6679556540917e-16
  44     -0.00140899834556
  45    -1.9417543837371e-15
  46    -0.026411410096785
  47    3.130116870924e-16
  48    1.8073326074087e-14
  49    1.9782874494655e-14
  50    -1.3789524515866e-16
  51    -0.020940206272954
  52    7.5687381693282e-16
  53    -3.2028325684063e-15
  54    -0.035529095458351
  55    1.1780597216792e-15
 Sym= A
 Ene=               2
 Spin= Alpha
 Occup=    0.01701
   1    0.0012633831891917
   2    -0.012177864853063
   3    -0.029689716233618
   4    -0.040077926320043
   5      0.52753534390858
   6    -2.8776229187985e-15
   7     -0.20024173707757
   8      0.37590840337258
   9    -1.2726073935804e-15
  10     -0.10406229745278
  11     0.088833999932659
  12    -3.412837147668e-16
  13    -0.010777520397276
  14    -0.0051305497045833
  15    -0.00097498923659344
  16    3.1544959158015e-16
  17    -0.0042084041358821
  18    2.8568433280908e-17
  19     -0.01025546106516
  20    -0.0072596647553028
  21    -3.8550564992366e-16
  22    -0.006432059543257
  23    -3.3265074593533e-16
  24    0.0028457149484626
  25      0.11576220809379
  26      0.24615291636214
  27      0.14620547428721
  28     -0.35045532104693
  29    -1.2698473467548e-15
  30    -0.050852430312642
  31     -0.21826082965614
  32    -1.9291151747762e-15
  33    -0.043796724541311
  34    -0.042052292102298
  35    4.4542954665972e-16
  36    -0.004056213874241
  37    0.0084919912156772
  38     0.037761494139418
  39    -7.2159841369325e-17
  40     0.021235974171623
  41    -4.1502359657188e-16
  42     0.010657535641412
  43     0.011217899472009
  44    -5.6643519503696e-16
  45     0.021783977744933
  46    -2.8515707000106e-16
  47     -0.25057380711794
  48     -0.16104817624948
  49    -0.027728712422963
  50    0.0067408935188721
  51    1.0032193499678e-16
  52    -0.014907503798192
  53    -0.0053478925629939
  54    -2.1208105055882e-16
  55     0.015625781836566
 Sym= A
 Ene=               3
 Spin= Alpha
 Occup=    0.01701
   1    -5.0590435640146e-16
   2    1.5568595975789e-15
   3    2.9446821632691e-14
   4    1.8905608836448e-14
   5    -9.5507261648134e-16
   6      0.22570959254522
   7    -6.1456571139102e-15
   8    -3.294892320233e-15
   9      0.25797481203958
  10    -1.4168471261004e-14
  11    -1.1009259842992e-14
  12       0.1710791051398
  13    2.2300587011997e-14
  14    5.7571116133255e-16
  15    -1.1844527058681e-15
  16    -0.015950946135329
  17    -1.5911531357486e-16
  18    0.0020544911802361
  19    2.1235020412265e-16
  20    -8.8634098760607e-16
  21    -0.038478545670099
  22    2.461626540979e-16
  23    -0.0059220014170094
  24    4.0124323724473e-15
  25    1.1548389506736e-14
  26    -2.848555085845e-14
  27    -6.5516922582849e-14
  28    1.0848916944247e-14
  29    0.0066338929209525
  30    -1.6839034405977e-14
  31    -3.4951686881661e-15
  32    -0.047780723609692
  33    -2.2753445704288e-14
  34    -3.7192162967374e-14
  35       0.5310591816495
  36    1.6756137694514e-14
  37    3.7861729475019e-16
  38    1.7157610235413e-15
  39      0.01073080368344
  40    -3.6687278071224e-16
  41     0.040536653572507
  42    -9.4104451532342e-15
  43    -3.8738491725767e-16
  44    -0.013144051895854
  45    -7.2597746716562e-15
  46     0.027718701200527
  47    -7.7451766435789e-15
  48    5.6698802834528e-14
  49    -2.1710001909905e-14
  50    -3.6911414112935e-15
  51     0.028092957267441
  52    2.5970663836331e-15
  53    -1.231890165136e-14
  54      0.16609185136518
  55    1.0849727086797e-14
 Sym= A
 Ene=               4
 Spin= Alpha
 Occup=    0.00160
   1    5.3972575469876e-16
   2    2.559961747846e-16
   3    -8.0819232655966e-15
   4    -4.1098560117902e-14
   5    2.3019376615492e-15
   6      0.47436831811063
   7    -5.5098711712354e-15
   8    3.2355828844821e-16
   9      0.37214478532456
  10    5.9417468788796e-15
  11    1.0072786654643e-15
  12     0.056302810146672
  13    9.5853660334206e-15
  14    -3.6001116082605e-16
  15    3.5861948367246e-16
  16    -0.031030354041814
  17    -1.0115248374017e-16
  18    0.0032837169096316
  19    -2.3643785868662e-15
  20    5.7776459082128e-18
  21    -0.030853075677749
  22    -2.0247375451154e-16
  23    -0.038204172517397
  24    -5.707138497395e-17
  25    -1.192581790672e-15
  26    5.2218014520753e-15
  27    4.0629628002875e-14
  28    -6.8223885282075e-15
  29      0.15830524413476
  30    1.1119442840407e-15
  31    3.0901429308838e-15
  32       0.1724699422616
  33    1.0140507229267e-14
  34    7.1876386837787e-15
  35     0.024630322495576
  36    9.3928333202477e-15
  37    1.110308109007e-15
  38    1.7268021234672e-17
  39     0.094153999630549
  40    1.7643484464908e-15
  41      0.12989923593556
  42    2.1787693894902e-15
  43    2.5709359847648e-15
  44     0.050813829551877
  45    2.6762696562836e-15
  46     0.054130933302903
  47    -2.6568932149711e-16
  48    1.2626318998067e-15
  49    -5.7524650596271e-15
  50    3.7978978507989e-16
  51    0.0074023975048726
  52    -7.7434665388122e-16
  53    -1.3166703258918e-15
  54     0.030830102865659
  55    5.2100830952282e-16
 Sym= A
 Ene=               5
 Spin= Alpha
 Occup=    0.00160
   1     0.012808049422733
   2     0.051214065107295
   3    -0.034825097396929
   4     -0.24876920299697
   5      0.11817434385146
   6    7.8043412045016e-15
   7     -0.12648134342676
   8      0.14106531079207
   9    -3.9697745114575e-15
  10    -0.097343758202184
  11      0.29158125104479
  12    1.9355343476182e-14
  13    -0.078292461241876
  14    -0.022211729114424
  15    -0.0090885978945847
  16    -2.7458592089592e-16
  17    -0.014489289542972
  18    1.3266637450344e-15
  19    -0.053774608467882
  20      0.06116264947749
  21    2.0996205535845e-15
  22    -0.019443237554751
  23    7.4975117235168e-16
  24    -0.051147414252658
  25    0.0094820203246154
  26      0.19024905119673
  27      0.59562324164971
  28      -0.2703781471392
  29    1.0961846910629e-14
  30     -0.17070289659099
  31     -0.16856646363427
  32    1.3561242879796e-15
  33     -0.17736104849057
  34     -0.26178739682703
  35    -1.1671963413679e-14
  36     0.009400211210364
  37      0.13356934316852
  38     0.012457159917927
  39    3.8067539622099e-16
  40      0.23487673277506
  41    1.6483111138363e-15
  42      0.05611730013703
  43     0.050275380131218
  44    2.406657223202e-15
  45      0.30894005735823
  46    2.9485195128166e-15
  47     -0.16490826376094
  48     -0.16246869455356
  49    -0.063559388549256
  50    -0.022710289558403
  51    -8.4943414907071e-16
  52    -0.037337627114373
  53     -0.15695835865741
  54    -5.7408144840178e-15
  55    0.0093136630186619
 Sym= A
 Ene=               6
 Spin= Alpha
 Occup=    0.00032
   1    -0.015608176812459
   2    -0.087502414493363
   3     -0.26544909442187
   4    -0.054720963377853
   5    -0.059911524246672
   6    1.1784630835277e-15
   7      0.54361669463113
   8      0.44716692712957
   9    3.794343390675e-15
  10     0.091185218369051
  11      0.22857881429234
  12    -2.0374286542994e-15
  13    -0.025387753723104
  14      0.04449334942515
  15    -0.009426439101527
  16    -1.7445908442692e-16
  17     0.015694694429493
  18    8.7382560459674e-16
  19     0.098587072551209
  20    -0.055910829494734
  21    -7.7457651537976e-16
  22     0.011895823728129
  23    -1.9642272518777e-15
  24     -0.02860033341919
  25    -0.032708573851622
  26      0.35456917865356
  27      0.13117688988203
  28      0.39590851311947
  29    -6.3298942126653e-15
  30      0.36465694601094
  31     -0.33075961090858
  32    -2.230682698397e-15
  33       0.3864067810255
  34     -0.17681984708379
  35    5.2919336681413e-15
  36     0.026006574480153
  37     -0.15135093758526
  38    -0.042395479605251
  39    2.1424219823748e-15
  40     -0.23258126398348
  41    4.1004161938557e-15
  42     0.013238729254997
  43    -0.028983316543382
  44    1.2222689808824e-15
  45     -0.24067405664064
  46    4.4743938684362e-15
  47     -0.18613090333497
  48    -0.041694014069945
  49    -0.022406677481782
  50    -0.001391840559881
  51    -4.520992669889e-17
  52     0.031414746127872
  53    -0.057661223206206
  54    1.450943234968e-15
  55      0.08011674195425
 Sym= A
 Ene=               7
 Spin= Alpha
 Occup=    0.00032
   1    6.3728475221407e-16
   2    3.1564064614865e-15
   3    5.3445242032024e-15
   4    6.8652406054008e-14
   5    1.144801543696e-15
   6     -0.55674529850435
   7    -4.438072856985e-15
   8    3.0921679779074e-15
   9     -0.11454646457611
  10    -5.7283529421404e-15
  11    -2.7204395308693e-14
  12      0.16875195751132
  13    8.3679820236705e-15
  14    -6.0637372167988e-16
  15    -1.980062069731e-16
  16    0.0093144348928343
  17    -6.8421899186904e-17
  18    -0.011947704931608
  19    -3.4527102208212e-16
  20    1.2159598294477e-15
  21    -0.038407856993974
  22    9.2770611443605e-17
  23    -0.0073857394746656
  24    -2.3806211060196e-15
  25    6.5827454246044e-16
  26    1.2812280080732e-14
  27    -4.3018207232686e-14
  28    5.0757494315134e-18
  29      -0.5788561181097
  30    -1.7941288432262e-14
  31    7.8147506141835e-15
  32     -0.26747924412713
  33    -2.2662650596361e-14
  34    -2.3241849058296e-14
  35      0.35188263742585
  36    -2.3935555986868e-14
  37    2.2218723079913e-15
  38    9.6432659356663e-16
  39    -0.012265859233584
  40    3.6719669965782e-15
  41      0.03797222650478
  42    -2.0490314476774e-15
  43    -3.3126605979838e-16
  44     0.027289896717071
  45    -3.568821043349e-15
  46     0.088187973518203
  47    -4.3614339607006e-15
  48    -2.4356317631457e-15
  49    -5.6764207249028e-14
  50    -2.6584859632933e-15
  51     0.023932896603739
  52    -8.5099701075961e-16
  53    8.5127608033613e-16
  54      0.17138735392167
  55    1.4099608290203e-14
 Sym= A
 Ene=               8
 Spin= Alpha
 Occup=    0.00025
   1    1.2573762242282e-15
   2    4.301915654165e-15
   3    -1.0553595134819e-14
   4    -1.7586737534827e-14
   5    -1.8470753010001e-15
   6     -0.23000407663151
   7     2.03029647367e-15
   8    3.7606058019903e-15
   9     -0.11832042762284
  10    6.3127827571555e-15
  11    1.4589924652621e-16
  12    0.00076384526125412
  13    3.2572737762254e-15
  14    -3.7208700693764e-16
  15    3.4250269486346e-16
  16    -0.030567246088703
  17    2.1939632344278e-17
  18    0.0087750579233585
  19    -1.2591307633238e-15
  20    -9.1533311253546e-16
  21    -0.057882275438317
  22    -6.6618277482547e-16
  23     0.070858511886674
  24    6.311320742111e-16
  25    -4.8786071175455e-15
  26    8.4811176533713e-15
  27    2.1765062351779e-14
  28    -3.2940629125568e-15
  29      0.74311705826747
  30    6.2578314286141e-15
  31    5.033670304658e-15
  32      0.25736849237699
  33    1.1260134790805e-14
  34    4.1660713771144e-15
  35    -0.045393196534443
  36    2.117577313183e-15
  37    1.1257650792727e-15
  38    1.4213713806537e-15
  39     -0.14141090541477
  40    -2.775201372553e-15
  41     -0.22403545628879
  42    3.4368088751828e-15
  43    4.5668187704659e-16
  44     -0.09893047064302
  45    -9.0080385371047e-16
  46     -0.10647397773989
  47    -9.704065609653e-15
  48    -1.2156003847217e-14
  49    -3.2703119728361e-15
  50    4.9640660825574e-16
  51     0.026822486437841
  52    -6.0960010103562e-16
  53    1.4545041420075e-15
  54    -0.033991791886494
  55    -1.5276622761399e-15
 Sym= A
 Ene=               9
 Spin= Alpha
 Occup=    0.00025
   1    -0.0044393092563748
   2     0.025606162819256
   3     0.089029275834603
   4    -0.052382829979388
   5     0.077314196022805
   6    -4.1404817936421e-15
   7     -0.29796834800527
   8    -0.015689074026274
   9    -5.7928373050084e-15
  10     -0.24415435069065
  11      0.12010338344495
  12    2.3242484367555e-14
  13    -0.070877883849279
  14    -0.0048797159135144
  15    -0.010137607345622
  16    6.2016361937948e-16
  17    -0.0023959214640156
  18    5.7340378907387e-16
  19    -0.017570483972431
  20     0.054279415859249
  21    -3.2157069060819e-16
  22    -0.014036559870379
  23    -1.0288620651185e-15
  24    -0.080191587821418
  25     -0.47972797983159
  26     -0.51978337531932
  27      0.43047147162511
  28      0.41089122096521
  29    8.844623228829e-16
  30      0.10104821590115
  31       0.2138237707265
  32    -2.3450051558774e-15
  33     -0.12826412314312
  34     -0.18912036626676
  35    -1.6201687463552e-14
  36    -0.041057347312574
  37      0.14399925236279
  38    -0.0059501224690422
  39    -3.5408796910698e-15
  40      0.18208312735629
  41    3.4630706304927e-15
  42     0.059220438883505
  43    -0.0095997317850028
  44    1.4515371833152e-15
  45      0.27328024181314
  46    9.3531985267972e-15
  47    -0.055686447597426
  48     -0.13463144254918
  49    -0.055113573143821
  50    -0.011755244936621
  51    -2.8176331798194e-16
  52    -0.017597190235165
  53     -0.14180297856793
  54    5.6166899472026e-16
  55     -0.01698649929988
 Sym= A
 Ene=              10
 Spin= Alpha
 Occup=    0.00009
   1    -0.00075902537192262
   2    -0.080002075030815
   3      0.04791160325941
   4      0.12319412704502
   5      0.21349820030699
   6    3.6049917856092e-15
   7      0.42620204375379
   8      0.16227438038432
   9    -6.3833370523448e-16
  10     0.057106440768572
  11    -0.058706916478433
  12    -1.8873371632632e-15
  13    -0.014923241484039
  14    -0.050651395630567
  15     0.011564734861258
  16    -6.1024699954641e-16
  17    -0.0071603637989121
  18    -1.7448684546779e-16
  19    -0.013785260508475
  20     0.028222701876502
  21    -3.881915445888e-16
  22    -0.010125630427493
  23    1.2561474296548e-16
  24    -0.0042468622172812
  25     -0.21610133320937
  26     -0.39785397037266
  27     -0.10274897101329
  28     -0.19996056282623
  29    -2.3090493848545e-16
  30     -0.28944842545166
  31     0.067753883189739
  32    -3.2953265092059e-15
  33    -0.047355934140099
  34     0.030781879979424
  35    3.4622546680442e-16
  36    -0.018088340719511
  37    -0.011070595847075
  38    -0.087282081072208
  39    -1.6216576840342e-15
  40     0.015056412670309
  41    3.2361162263712e-15
  42     0.015958910752235
  43    -0.056806887949919
  44    -1.7133072154972e-15
  45     0.029728216068508
  46    3.3602189633398e-15
  47      0.10796133900069
  48     0.079290313197134
  49    0.0075373715136326
  50    0.0075705897344147
  51    1.0878048246756e-15
  52    -0.013052704078027
  53    -0.011243508196485
  54    4.0657670864652e-16
  55    -0.010543951014326
 Sym= A
 Ene=              11
 Spin= Alpha
 Occup=    0.00009
   1    -3.5065099362754e-15
   2    3.3645350430537e-15
   3    6.7059716429392e-14
   4    -1.2356947152218e-13
   5    -4.422489873417e-15
   6     -0.49487157800394
   7    -2.3425228054224e-15
   8    -2.3967723140353e-14
   9      0.15542779269764
  10    -6.0770883100107e-14
  11    4.5449611129573e-15
  12      0.26230526451593
  13    4.7589679489218e-14
  14    -7.0388220800445e-16
  15    3.9941344096878e-15
  16     0.046515479487191
  17    1.0163320841841e-15
  18    -0.078509056727785
  19    1.176691575314e-14
  20    1.0710966266842e-14
  21     0.071672293616898
  22    -3.8071747921024e-15
  23     -0.18727055230999
  24    -1.2541525160274e-14
  25    -1.7921258032449e-14
  26    3.3958314041948e-14
  27    5.8343272829805e-14
  28    1.8870519647121e-14
  29      0.36817606289601
  30    -5.7045505457288e-14
  31    5.533272318075e-15
  32     -0.27959056158649
  33    -1.0553144995239e-13
  34    -3.2508854249876e-14
  35     -0.14113307851729
  36    1.1088962008207e-13
  37    8.7987269008583e-15
  38    -1.2957410786431e-15
  39      0.43945025246622
  40    6.1382892257028e-15
  41     0.095876316617151
  42    2.0377231383987e-14
  43    -8.0557571155416e-15
  44      0.38267699293888
  45    -1.3593981856323e-14
  46      0.32105424685248
  47    -2.8178013149752e-14
  48    -5.9719855641016e-14
  49    8.2604776100099e-15
  50    3.7707599741215e-15
  51     0.030139193689969
  52    3.257553411493e-15
  53    4.789029599566e-14
  54     -0.11439374230235
  55    6.5427521235522e-14
 Sym= A
 Ene=              12
 Spin= Alpha
 Occup=    0.00007
   1    -0.012574487862006
   2    0.0090077501299844
   3    -0.055375857720825
   4     -0.03451887500554
   5       0.1434304557475
   6    -1.1848814797019e-14
   7      0.24085857681808
   8      0.19094002263845
   9    6.1309857754786e-15
  10      0.12246567177507
  11     0.044093629456645
  12    3.3995934393629e-15
  13     0.012946059427978
  14     0.012621934123387
  15    -0.017645333666503
  16    -3.5187994447109e-15
  17     0.010664328799747
  18    2.4085982885503e-15
  19     0.026998234294752
  20    -0.028819155050184
  21    -7.8287436194245e-15
  22    0.0092847833147456
  23    2.3708931385717e-16
  24    -0.025351408454105
  25      0.19547204421876
  26      0.42325095909888
  27     0.089222229730865
  28      0.26838751174417
  29    1.8301453562472e-14
  30     -0.17354619718623
  31    -0.084846680871821
  32    -9.3143156846099e-17
  33     0.036902205127755
  34    -0.032394644818209
  35    -3.2885979397076e-15
  36    0.0047024000807056
  37    -0.045868423630098
  38    -0.045603406029278
  39    -1.0431225990416e-14
  40     0.071797802779293
  41    1.234766789887e-14
  42     0.027826783747963
  43    0.0044673317395288
  44    -5.8218643360797e-15
  45    -0.011602329161436
  46    9.7839323993297e-15
  47      0.35390578420192
  48     0.088845673352987
  49    -0.0073904539124874
  50    -0.025023762101115
  51    1.8335265871209e-15
  52     0.022209379779729
  53     -0.02913071185304
  54    3.4970213496636e-15
  55     0.028419999338405
 Sym= A
 Ene=              13
 Spin= Alpha
 Occup=    0.00007
   1    -1.9171202477918e-14
   2    -2.792555796204e-14
   3    2.374439881393e-13
   4    -3.0227125708305e-13
   5    -4.3583413543134e-16
   6    -0.060984323957735
   7    -7.1445129922188e-15
   8    -1.6292771583355e-14
   9    -0.091417634276448
  10    -1.5159216544026e-13
  11    1.2322082969097e-13
  12     -0.54906383726008
  13    4.7414915706816e-14
  14    5.7568162386368e-15
  15    1.291488841559e-15
  16     -0.01662957600286
  17    3.8847758473013e-16
  18     0.029566468108578
  19    2.8951138746129e-14
  20    4.2592065125385e-15
  21     0.024706326212974
  22    1.8564059818251e-15
  23      0.15553847782198
  24    1.0247780050343e-14
  25    2.4663732364158e-14
  26    -1.582390073864e-13
  27    1.7041496288986e-14
  28    2.432846101213e-14
  29    -0.098050337420781
  30    -5.1868216267211e-14
  31    -6.243131917068e-14
  32      0.18877840812432
  33    -1.4826065437639e-13
  34    -9.9628892907938e-14
  35      0.81610907653883
  36    3.238434953267e-13
  37    1.6641879517996e-14
  38    1.1655834165636e-14
  39      0.40726425775217
  40    4.6661970101875e-15
  41     -0.23372692201197
  42    -2.0556399999061e-14
  43    -3.9026518298728e-14
  44      0.17429349693571
  45    -1.2505712953161e-15
  46     -0.53708093492391
  47    -6.1964304141607e-14
  48    8.4236423009336e-14
  49    1.800084839176e-13
  50    5.0642055181904e-15
  51    -0.042817218623837
  52    9.1193989028698e-15
  53    -2.6444692886417e-14
  54     -0.27953941169257
  55    -3.3316172333629e-14
 Sym= A
 Ene=              14
 Spin= Alpha
 Occup=    0.00006
   1    5.807197257671e-16
   2    2.2886329289704e-15
   3    -9.9612798942567e-16
   4    -1.3101107989577e-14
   5    -5.5121783673257e-15
   6    -0.051057521772994
   7    -1.2321143169417e-14
   8    3.3302619634778e-15
   9      0.19222093324771
  10    -2.2197949575685e-15
  11    7.2692232279645e-15
  12     0.029097123605517
  13    3.8999312938462e-15
  14    -1.1146277804715e-15
  15    1.670276981889e-15
  16    -0.057797390351544
  17    8.1891907138983e-16
  18    -0.0021601425803528
  19    -2.9970462554945e-15
  20    -9.6509044369772e-16
  21     -0.19817532439138
  22    -1.6898616176872e-16
  23    -0.012251503018124
  24    -1.5472056130625e-15
  25    -1.2191742098073e-14
  26    -6.386830638254e-16
  27    1.7465339203715e-14
  28    -3.1292644174667e-15
  29     0.045470456439218
  30    1.2626335520983e-14
  31    -1.1135559485873e-14
  32     -0.19561286684392
  33    3.0637631958948e-15
  34    -2.8803962760286e-15
  35    -0.032509060037755
  36    6.4112243104651e-16
  37    5.769554022652e-15
  38    -2.8632927468835e-15
  39      -0.4799237358172
  40    -1.4218487694827e-15
  41      0.53938536855242
  42    3.5441655329314e-15
  43    -5.1633903939948e-15
  44     -0.30381185953641
  45    5.1574751396699e-17
  46      0.32780239361602
  47    -1.8136434711957e-15
  48    -5.6940457055854e-15
  49    -4.4820598719421e-15
  50    1.9964861569211e-15
  51    -0.033735434730806
  52    -2.6734963830362e-15
  53    2.4809135947874e-15
  54     0.041306360996652
  55    1.8579924793995e-15
 Sym= A
 Ene=              15
 Spin= Alpha
 Occup=    0.00006
   1    -0.0055023786751303
   2      0.11451306932384
   3      0.22194977206694
   4      0.11487987539153
   5    -0.028254805484521
   6    6.203493494079e-15
   7     -0.11600366890646
   8    -0.035673760731213
   9    2.4330498521865e-15
  10    -0.098018117263871
  11    -0.024214987076774
  12    1.6798664550278e-14
  13    -0.0061984464830259
  14    -0.0097661471470336
  15     0.018871347740689
  16    4.5443295661367e-16
  17     -0.01485367497472
  18    -1.1658199141983e-16
  19    -0.0042608430408715
  20      0.01025336259116
  21    -3.1223392002006e-15
  22    -0.020484340776274
  23    -1.7646148722106e-15
  24    -0.0061222850341238
  25      -0.1314364731993
  26     -0.18715900114747
  27     -0.11893291886833
  28     -0.32761057998066
  29    -1.4408462986673e-15
  30      0.28970260927491
  31      -0.1667740085451
  32    -1.6412771475894e-15
  33     0.065730423414942
  34     0.010152297348671
  35    -2.9109060136923e-14
  36    -0.016655473681679
  37     0.014771024056935
  38     0.015893442362424
  39    -1.7079276617218e-14
  40      0.02003040094726
  41    5.3522193192353e-15
  42    -0.0086139900040544
  43     -0.01124731696632
  44    -9.5887043884646e-15
  45    0.0046706499179198
  46    1.1966370882704e-14
  47     -0.35791789988956
  48     -0.11963379352974
  49    0.0026113399827144
  50     0.038312541276804
  51    6.1847200130393e-16
  52    -0.010663617883425
  53     0.024579112726069
  54    1.0809516027792e-14
  55    -0.0085918534329641
 Sym= A
 Ene=              16
 Spin= Alpha
 Occup=    0.00002
   1    2.7259379628379e-15
   2    1.1233834054673e-14
   3    -1.3023776628436e-14
   4    -3.5987813941589e-14
   5    -2.4170199735463e-16
   6     -0.11460279371961
   7    -4.1171344547977e-15
   8    -2.827594956551e-15
   9     -0.59377036558983
  10    2.1760474387846e-14
  11    -2.4895629419055e-15
  12      -0.1310625074323
  13    9.4973349837674e-15
  14    3.0786390694032e-15
  15    -7.4241938737119e-16
  16     0.041845601873805
  17    -2.1112192358913e-15
  18      0.17497541108814
  19    -6.0958204035229e-15
  20    -1.0228348214238e-15
  21      0.21704470786733
  22    -2.2892191503726e-15
  23       0.1795368978613
  24    2.7452044711398e-17
  25    -1.8605958221588e-15
  26    2.5352010190422e-14
  27    3.142794312382e-14
  28    -7.2038041881869e-15
  29      0.44569998938444
  30    5.2080008215694e-15
  31    1.2965903615154e-14
  32      0.14809229836159
  33    1.5363865355032e-14
  34    6.3667938034946e-15
  35     -0.05483852875929
  36    3.1231992305804e-15
  37    -1.1548888874882e-15
  38    5.4688387846434e-15
  39      0.72487732317702
  40    1.6861738811038e-15
  41      0.16499301946014
  42    -1.094552820153e-15
  43    5.9901360277231e-15
  44      0.37706958596532
  45    4.2072790339561e-15
  46      0.37873583662368
  47    1.1847577201258e-15
  48    -7.3430530259666e-15
  49    -4.4505129651426e-15
  50    -1.0412324348578e-15
  51     0.042293994559763
  52    7.6038363650032e-17