2
Step =      0  Time =       0.00000000  Total energy =      -1.169802115753  Kinetic energy =       0.009988597903  Potential energy =      -1.179790713656
H      -0.37202100      0.00251200      0.00114300      0.00234078     -0.00001572     -0.00000726
H       0.37201700     -0.00248400     -0.00116400     -0.00234078      0.00001572      0.00000726
2
Step =      1  Time =       8.26827492  Total energy =      -1.169806459452  Kinetic energy =       0.009700021374  Potential energy =      -1.179506480826
H      -0.36177741      0.00244322      0.00111124      0.00230672     -0.00001549     -0.00000715
H       0.36177341     -0.00241522     -0.00113224     -0.00230672      0.00001549      0.00000715
2
Step =      2  Time =      16.53654983  Total energy =      -1.169805680678  Kinetic energy =       0.008817338417  Potential energy =      -1.178623019095
H      -0.35183546      0.00237646      0.00108041      0.00219926     -0.00001477     -0.00000682
H       0.35183146     -0.00234846     -0.00110141     -0.00219926      0.00001477      0.00000682
2
Step =      3  Time =      24.80482475  Total energy =      -1.169798086820  Kinetic energy =       0.007383528950  Potential energy =      -1.177181615770
H      -0.34253219      0.00231399      0.00105157      0.00201252     -0.00001351     -0.00000624
H       0.34252819     -0.00228599     -0.00107257     -0.00201252      0.00001351      0.00000624
2
Step =      4  Time =      33.07309966  Total energy =      -1.169783183108  Kinetic energy =       0.005546242297  Potential energy =      -1.175329425405
H      -0.33422437      0.00225821      0.00102581      0.00174425     -0.00001171     -0.00000541
H       0.33422037     -0.00223021     -0.00104681     -0.00174425      0.00001171      0.00000541
2
Step =      5  Time =      41.34137458  Total energy =      -1.169762658472  Kinetic energy =       0.003560553840  Potential energy =      -1.173323212312
H      -0.32726871      0.00221150      0.00100424      0.00139755     -0.00000938     -0.00000433
H       0.32726471     -0.00218350     -0.00102524     -0.00139755      0.00000938      0.00000433
2
Step =      6  Time =      49.60964949  Total energy =      -1.169740815860  Kinetic energy =       0.001758979277  Potential energy =      -1.171499795136
H      -0.32199475      0.00217609      0.00098789      0.00098229     -0.00000660     -0.00000305
H       0.32199075     -0.00214809     -0.00100889     -0.00098229      0.00000660      0.00000305
2
Step =      7  Time =      57.87792441  Total energy =      -1.169723712876  Kinetic energy =       0.000484506018  Potential energy =      -1.170208218894
H      -0.31867295      0.00215378      0.00097759      0.00051553     -0.00000346     -0.00000160
H       0.31866895     -0.00212579     -0.00099859     -0.00051553      0.00000346      0.00000160
2
Step =      8  Time =      66.14619932  Total energy =      -1.169716883306  Kinetic energy =       0.000000774013  Potential energy =      -1.169717657319
H      -0.31748343      0.00214580      0.00097390      0.00002061     -0.00000014     -0.00000006
H       0.31747943     -0.00211780     -0.00099490     -0.00002061      0.00000014      0.00000006
2
Step =      9  Time =      74.41447424  Total energy =      -1.169722702512  Kinetic energy =       0.000412120296  Potential energy =      -1.170134822809
H      -0.31849264      0.00215257      0.00097703     -0.00047547      0.00000319      0.00000147
H       0.31848864     -0.00212458     -0.00099803      0.00047547     -0.00000319     -0.00000147
2
Step =     10  Time =      82.68274915  Total energy =      -1.169739140871  Kinetic energy =       0.001629674475  Potential energy =      -1.171368815346
H      -0.32164413      0.00217374      0.00098680     -0.00094549      0.00000635      0.00000293
H       0.32164013     -0.00214574     -0.00100780      0.00094549     -0.00000635     -0.00000293
2
Step =     11  Time =      90.95102407  Total energy =      -1.169760832764  Kinetic energy =       0.003400314411  Potential energy =      -1.173161147176
H      -0.32676643      0.00220813      0.00100268     -0.00136574      0.00000917      0.00000423
H       0.32676243     -0.00218013     -0.00102368      0.00136574     -0.00000917     -0.00000423
2
Step =     12  Time =      99.21929898  Total energy =      -1.169781662410  Kinetic energy =       0.005384077345  Potential energy =      -1.175165739756
H      -0.33359539      0.00225399      0.00102386     -0.00171856      0.00001154      0.00000533
H       0.33359139     -0.00222599     -0.00104486      0.00171856     -0.00001154     -0.00000533
2
Step =     13  Time =     107.48757390  Total energy =      -1.169797128404  Kinetic energy =       0.007244590347  Potential energy =      -1.177041718751
H      -0.34180511      0.00230911      0.00104931     -0.00199349      0.00001339      0.00000618
H       0.34180111     -0.00228112     -0.00107031      0.00199349     -0.00001339     -0.00000618
2
Step =     14  Time =     115.75584881  Total energy =      -1.169805329422  Kinetic energy =       0.008718747125  Potential energy =      -1.178524076547
H      -0.35103999      0.00237112      0.00107795     -0.00218693      0.00001468      0.00000678
H       0.35103599     -0.00234313     -0.00109895      0.00218693     -0.00001468     -0.00000678
2
Step =     15  Time =     124.02412373  Total energy =      -1.169806614999  Kinetic energy =       0.009649781116  Potential energy =      -1.179456396115
H      -0.36094243      0.00243762      0.00110865     -0.00230074      0.00001545      0.00000713
H       0.36093843     -0.00240962     -0.00112965      0.00230074     -0.00001545     -0.00000713
2
Step =     16  Time =     132.29239864  Total energy =      -1.169802617403  Kinetic energy =       0.009986757979  Potential energy =      -1.179789375382
H      -0.37117319      0.00250631      0.00114037     -0.00234056      0.00001572      0.00000726
H       0.37116919     -0.00247832     -0.00116138      0.00234056     -0.00001572     -0.00000726
2
Step =     17  Time =     140.56067356  Total energy =      -1.169795316663  Kinetic energy =       0.009763423734  Potential energy =      -1.179558740397
H      -0.38142415      0.00257515      0.00117216     -0.00231424      0.00001554      0.00000718
H       0.38142015     -0.00254715     -0.00119316      0.00231424     -0.00001554     -0.00000718
2
Step =     18  Time =     148.82894847  Total energy =      -1.169786443979  Kinetic energy =       0.009069900079  Potential energy =      -1.178856344058
H      -0.39142460      0.00264230      0.00120317     -0.00223054      0.00001498      0.00000692
H       0.39142060     -0.00261430     -0.00122417      0.00223054     -0.00001498     -0.00000692
2
Step =     19  Time =     157.09722339  Total energy =      -1.169777240440  Kinetic energy =       0.008026426087  Potential energy =      -1.177803666527
H      -0.40094305      0.00270621      0.00123268     -0.00209831      0.00001409      0.00000651
H       0.40093905     -0.00267822     -0.00125368      0.00209831     -0.00001409     -0.00000651
2
Step =     20  Time =     165.36549830  Total energy =      -1.169768507849  Kinetic energy =       0.006763252315  Potential energy =      -1.176531760164
H      -0.40978640      0.00276559      0.00126010     -0.00192613      0.00001293      0.00000597
H       0.40978239     -0.00273760     -0.00128111      0.00192613     -0.00001293     -0.00000597
2
Step =     21  Time =     173.63377322  Total energy =      -1.169760983580  Kinetic energy =       0.005406231616  Potential energy =      -1.175167215196
H      -0.41779817      0.00281939      0.00128494     -0.00172209      0.00001156      0.00000534
H       0.41779417     -0.00279140     -0.00130595      0.00172209     -0.00001156     -0.00000534
2
Step =     22  Time =     181.90204813  Total energy =      -1.169755468993  Kinetic energy =       0.004064755387  Potential energy =      -1.173820224380
H      -0.42485598      0.00286678      0.00130683     -0.00149323      0.00001003      0.00000463
H       0.42485198     -0.00283879     -0.00132783      0.00149323     -0.00001003     -0.00000463
2
Step =     23  Time =     190.17032305  Total energy =      -1.169751516505  Kinetic energy =       0.002824187183  Potential energy =      -1.172575703688
H      -0.43086503      0.00290713      0.00132546     -0.00124467      0.00000836      0.00000386
H       0.43086103     -0.00287914     -0.00134646      0.00124467     -0.00000836     -0.00000386
2
Step =     24  Time =     198.43859796  Total energy =      -1.169748053199  Kinetic energy =       0.001750566853  Potential energy =      -1.171498620052
H      -0.43574781      0.00293992      0.00134060     -0.00097994      0.00000658      0.00000304
H       0.43574381     -0.00291193     -0.00136160      0.00097994     -0.00000658     -0.00000304
2
Step =     25  Time =     206.70687288  Total energy =      -1.169745200729  Kinetic energy =       0.000899270918  Potential energy =      -1.170644471647
H      -0.43944022      0.00296471      0.00135205     -0.00070235      0.00000472      0.00000218
H       0.43943622     -0.00293672     -0.00137305      0.00070235     -0.00000472     -0.00000218
2
Step =     26  Time =     214.97514779  Total energy =      -1.169743297203  Kinetic energy =       0.000314978249  Potential energy =      -1.170058275452
H      -0.44189391      0.00298119      0.00135966     -0.00041567      0.00000279      0.00000129
H       0.44188991     -0.00295320     -0.00138066      0.00041567     -0.00000279     -0.00000129
2
Step =     27  Time =     223.24342271  Total energy =      -1.169742397827  Kinetic energy =       0.000027911700  Potential energy =      -1.169770309528
H      -0.44307764      0.00298914      0.00136333     -0.00012374      0.00000083      0.00000038
H       0.44307364     -0.00296115     -0.00138433      0.00012374     -0.00000083     -0.00000038
2
Step =     28  Time =     231.51169762  Total energy =      -1.169742473830  Kinetic energy =       0.000052519088  Potential energy =      -1.169794992917
H      -0.44297671      0.00298846      0.00136302      0.00016973     -0.00000114     -0.00000053
H       0.44297271     -0.00296047     -0.00138402     -0.00016973      0.00000114      0.00000053
2
Step =     29  Time =     239.77997254  Total energy =      -1.169743528794  Kinetic energy =       0.000387575251  Potential energy =      -1.170131104045
H      -0.44159235      0.00297917      0.00135872      0.00046109     -0.00000310     -0.00000143
H       0.44158835     -0.00295118     -0.00137973     -0.00046109      0.00000310      0.00000143
2
Step =     30  Time =     248.04824745  Total energy =      -1.169745590009  Kinetic energy =       0.001016154389  Potential energy =      -1.170761744398
H      -0.43894181      0.00296137      0.00135050      0.00074660     -0.00000501     -0.00000231
H       0.43893781     -0.00293338     -0.00137151     -0.00074660      0.00000501      0.00000231
2
Step =     31  Time =     256.31652237  Total energy =      -1.169748568365  Kinetic energy =       0.001905609484  Potential energy =      -1.171654177849
H      -0.43505903      0.00293530      0.00133847      0.00102241     -0.00000687     -0.00000317
H       0.43505503     -0.00290731     -0.00135947     -0.00102241      0.00000687      0.00000317
2
Step =     32  Time =     264.58479729  Total energy =      -1.169752090372  Kinetic energy =       0.003009307937  Potential energy =      -1.172761398309
H      -0.42999495      0.00290129      0.00132276      0.00128482     -0.00000863     -0.00000398
H       0.42999095     -0.00287330     -0.00134377     -0.00128482      0.00000863      0.00000398
2
Step =     33  Time =     272.85307220  Total energy =      -1.169756196246  Kinetic energy =       0.004270439852  Potential energy =      -1.174026636098
H      -0.42381589      0.00285980      0.00130360      0.00153054     -0.00001028     -0.00000475
H       0.42381189     -0.00283181     -0.00132461     -0.00153054      0.00001028      0.00000475
2
Step =     34  Time =     281.12134712  Total energy =      -1.169762045318  Kinetic energy =       0.005620626696  Potential energy =      -1.175382672013
H      -0.41660156      0.00281136      0.00128123      0.00175590     -0.00001179     -0.00000544
H       0.41659756     -0.00278337     -0.00130224     -0.00175590      0.00001179      0.00000544
2
Step =     35  Time =     289.38962203  Total energy =      -1.169769818468  Kinetic energy =       0.006970713357  Potential energy =      -1.176740531825
H      -0.40845040      0.00275663      0.00125596      0.00195545     -0.00001313     -0.00000606
H       0.40844640     -0.00272864     -0.00127697     -0.00195545      0.00001313      0.00000606
2
Step =     36  Time =     297.65789695  Total energy =      -1.169778668529  Kinetic energy =       0.008208000870  Potential energy =      -1.177986669399
H      -0.39948988      0.00269646      0.00122818      0.00212191     -0.00001425     -0.00000658
H       0.39948588     -0.00266847     -0.00124918     -0.00212191      0.00001425      0.00000658
2
Step =     37  Time =     305.92617186  Total energy =      -1.169787881306  Kinetic energy =       0.009205122672  Potential energy =      -1.178993003978
H      -0.38988207      0.00263194      0.00119839      0.00224710     -0.00001509     -0.00000697
H       0.38987807     -0.00260396     -0.00121939     -0.00224710      0.00001509      0.00000697
2
Step =     38  Time =     314.19444678  Total energy =      -1.169796602345  Kinetic energy =       0.009832334744  Potential energy =      -1.179628937089
H      -0.37982601      0.00256442      0.00116721      0.00232240     -0.00001559     -0.00000720
H       0.37982201     -0.00253643     -0.00118821     -0.00232240      0.00001559      0.00000720
2
Step =     39  Time =     322.46272169  Total energy =      -1.169803509698  Kinetic energy =       0.009972619540  Potential energy =      -1.179776129237
H      -0.36955933      0.00249548      0.00113537      0.00233891     -0.00001571     -0.00000725
H       0.36955532     -0.00246749     -0.00115638     -0.00233891      0.00001571      0.00000725
2
Step =     40  Time =     330.73099661  Total energy =      -1.169806809123  Kinetic energy =       0.009542838363  Potential energy =      -1.179349647486
H      -0.35935880      0.00242699      0.00110374      0.00228795     -0.00001536     -0.00000709
H       0.35935480     -0.00239900     -0.00112475     -0.00228795      0.00001536      0.00000709
2
Step =     41  Time =     338.99927152  Total energy =      -1.169804525787  Kinetic energy =       0.008520706062  Potential energy =      -1.178325231850
H      -0.34953800      0.00236104      0.00107329      0.00216195     -0.00001452     -0.00000670
H       0.34953400     -0.00233306     -0.00109430     -0.00216195      0.00001452      0.00000670
2
Step =     42  Time =     347.26754644  Total energy =      -1.169795160585  Kinetic energy =       0.006972715432  Potential energy =      -1.176767876018
H      -0.34044007      0.00229995      0.00104508      0.00195573     -0.00001313     -0.00000606
H       0.34043607     -0.00227196     -0.00106609     -0.00195573      0.00001313      0.00000606
2
Step =     43  Time =     355.53582135  Total energy =      -1.169778659648  Kinetic energy =       0.005073011535  Potential energy =      -1.174851671184
H      -0.33242386      0.00224612      0.00102023      0.00166817     -0.00001120     -0.00000517
H       0.33241986     -0.00221814     -0.00104123     -0.00166817      0.00001120      0.00000517
2
Step =     44  Time =     363.80409627  Total energy =      -1.169757336040  Kinetic energy =       0.003099360364  Potential energy =      -1.172856696404
H      -0.32584228      0.00220193      0.00099982      0.00130390     -0.00000876     -0.00000404
H       0.32583828     -0.00217394     -0.00102083     -0.00130390      0.00000876      0.00000404
2
Step =     45  Time =     372.07237118  Total energy =      -1.169736049965  Kinetic energy =       0.001394131592  Potential energy =      -1.171130181557
H      -0.32101374      0.00216951      0.00098485      0.00087450     -0.00000587     -0.00000271
H       0.32100974     -0.00214152     -0.00100585     -0.00087450      0.00000587      0.00000271
2
Step =     46  Time =     380.34064610  Total energy =      -1.169720981121  Kinetic energy =       0.000289772731  Potential energy =      -1.170010753853
H      -0.31818974      0.00215054      0.00097609      0.00039869     -0.00000268     -0.00000124
H       0.31818574     -0.00212256     -0.00099710     -0.00039869      0.00000268      0.00000124
2
Step =     47  Time =     388.60892101  Total energy =      -1.169717123603  Kinetic energy =       0.000017881774  Potential energy =      -1.169735005377
H      -0.31752488      0.00214608      0.00097403     -0.00009904      0.00000067      0.00000031
H       0.31752088     -0.00211810     -0.00099504      0.00009904     -0.00000067     -0.00000031
2
Step =     48  Time =     396.87719593  Total energy =      -1.169725828255  Kinetic energy =       0.000637340553  Potential energy =      -1.170363168809
H      -0.31905642      0.00215636      0.00097878     -0.00059128      0.00000397      0.00000183
H       0.31905242     -0.00212838     -0.00099979      0.00059128     -0.00000397     -0.00000183
2
Step =     49  Time =     405.14547084  Total energy =      -1.169744087447  Kinetic energy =       0.002015055856  Potential energy =      -1.171759143303
H      -0.32269904      0.00218082      0.00099007     -0.00105136      0.00000706      0.00000326
H       0.32269504     -0.00215284     -0.00101108      0.00105136     -0.00000706     -0.00000326
2
Step =     50  Time =     413.41374576  Total energy =      -1.169766099870  Kinetic energy =       0.003868936336  Potential energy =      -1.173635036206
H      -0.32825663      0.00221814      0.00100731     -0.00145681      0.00000978      0.00000452
H       0.32825263     -0.00219016     -0.00102831      0.00145681     -0.00000978     -0.00000452
2
Step =     51  Time =     421.68202067  Total energy =      -1.169785962577  Kinetic energy =       0.005851969948  Potential energy =      -1.175637932525
H      -0.33544727      0.00226643      0.00102960     -0.00179167      0.00001203      0.00000556
H       0.33544327     -0.00223844     -0.00105061      0.00179167     -0.00001203     -0.00000556
2
Step =     52  Time =     429.95029559  Total energy =      -1.169799765476  Kinetic energy =       0.007640247355  Potential energy =      -1.177440012832
H      -0.34393515      0.00232342      0.00105592     -0.00204721      0.00001375      0.00000635
H       0.34393115     -0.00229544     -0.00107693      0.00204721     -0.00001375     -0.00000635
2
Step =     53  Time =     438.21857050  Total energy =      -1.169806214214  Kinetic energy =       0.008994520900  Potential energy =      -1.178800735114
H      -0.35336190      0.00238672      0.00108515     -0.00222125      0.00001492      0.00000689
H       0.35335790     -0.00235874     -0.00110616      0.00222125     -0.00001492     -0.00000689
2
Step =     54  Time =     446.48684542  Total energy =      -1.169806060531  Kinetic energy =       0.009784414653  Potential energy =      -1.179590475183
H      -0.36337277      0.00245394      0.00111619     -0.00231673      0.00001556      0.00000718
H       0.36336877     -0.00242596     -0.00113720      0.00231673     -0.00001556     -0.00000718
2
Step =     55  Time =     454.75512033  Total energy =      -1.169801094714  Kinetic energy =       0.009981650867  Potential energy =      -1.179782745580
H      -0.37363507      0.00252285      0.00114801     -0.00233996      0.00001571      0.00000726
H       0.37363107     -0.00249487     -0.00116902      0.00233996     -0.00001571     -0.00000726
2
Step =     56  Time =     463.02339525  Total energy =      -1.169793276974  Kinetic energy =       0.009636077543  Potential energy =      -1.179429354517
H      -0.38384925      0.00259144      0.00117968     -0.00229910      0.00001544      0.00000713
H       0.38384525     -0.00256346     -0.00120069      0.00229910     -0.00001544     -0.00000713
2
Step =     57  Time =     471.29167016  Total energy =      -1.169784231679  Kinetic energy =       0.008847214116  Potential energy =      -1.178631445796
H      -0.39375397      0.00265794      0.00121039     -0.00220298      0.00001479      0.00000683
H       0.39374997     -0.00262996     -0.00123140      0.00220298     -0.00001479     -0.00000683
2
Step =     58  Time =     479.55994508  Total energy =      -1.169775078994  Kinetic energy =       0.007739271188  Potential energy =      -1.177514350181
H      -0.40312705      0.00272088      0.00123946     -0.00206043      0.00001384      0.00000639
H       0.40312305     -0.00269290     -0.00126047      0.00206043     -0.00001384     -0.00000639
2
Step =     59  Time =     487.82821999  Total energy =      -1.169766559556  Kinetic energy =       0.006442611821  Potential energy =      -1.176209171377
H      -0.41178432      0.00277902      0.00126630     -0.00187992      0.00001262      0.00000583
H       0.41178032     -0.00275104     -0.00128731      0.00187992     -0.00001262     -0.00000583
2
Step =     60  Time =     496.09649491  Total energy =      -1.169759460615  Kinetic energy =       0.005080206058  Potential energy =      -1.174839666673
H      -0.41957777      0.00283135      0.00129046     -0.00166936      0.00001121      0.00000518
H       0.41957377     -0.00280337     -0.00131147      0.00166936     -0.00001121     -0.00000518
2
Step =     61  Time =     504.36476982  Total energy =      -1.169754430436  Kinetic energy =       0.003756003816  Potential energy =      -1.173510434252
H      -0.42639245      0.00287711      0.00131160     -0.00143539      0.00000964      0.00000445
H       0.42638845     -0.00284913     -0.00133261      0.00143539     -0.00000964     -0.00000445
2
Step =     62  Time =     512.63304474  Total energy =      -1.169750651767  Kinetic energy =       0.002549868693  Potential energy =      -1.172300520461
H      -0.43213857      0.00291569      0.00132941     -0.00118268      0.00000794      0.00000367
H       0.43213457     -0.00288771     -0.00135042      0.00118268     -0.00000794     -0.00000367
2
Step =     63  Time =     520.90131966  Total energy =      -1.169747292792  Kinetic energy =       0.001524742145  Potential energy =      -1.171272034937
H      -0.43674180      0.00294660      0.00134369     -0.00091455      0.00000614      0.00000284
H       0.43673780     -0.00291862     -0.00136470      0.00091455     -0.00000614     -0.00000284
2
Step =     64  Time =     529.16959457  Total energy =      -1.169744649057  Kinetic energy =       0.000733763847  Potential energy =      -1.170478412903
H      -0.44014156      0.00296943      0.00135423     -0.00063443      0.00000426      0.00000197
H       0.44013756     -0.00294145     -0.00137524      0.00063443     -0.00000426     -0.00000197
2
Step =     65  Time =     537.43786949  Total energy =      -1.169742987384  Kinetic energy =       0.000218431692  Potential energy =      -1.169961419077
H      -0.44229358      0.00298388      0.00136090     -0.00034615      0.00000232      0.00000107
H       0.44228958     -0.00295590     -0.00138191      0.00034615     -0.00000232     -0.00000107
2
Step =     66  Time =     545.70614440  Total energy =      -1.169742323606  Kinetic energy =       0.000005221265  Potential energy =      -1.169747544872
H      -0.44317065      0.00298977      0.00136362     -0.00005352      0.00000036      0.00000017
H       0.44316665     -0.00296179     -0.00138463      0.00005352     -0.00000036     -0.00000017
2
Step =     67  Time =     553.97441932  Total energy =      -1.169742631738  Kinetic energy =       0.000104812275  Potential energy =      -1.169847444013
H      -0.44276190      0.00298702      0.00136235      0.00023978     -0.00000161     -0.00000074
H       0.44275790     -0.00295905     -0.00138336     -0.00023978      0.00000161      0.00000074
2
Step =     68  Time =     562.24269423  Total energy =      -1.169743925818  Kinetic energy =       0.000512239846  Potential energy =      -1.170256165663
H      -0.44107238      0.00297568      0.00135711      0.00053008     -0.00000356     -0.00000164
H       0.44106838     -0.00294770     -0.00137812     -0.00053008      0.00000356      0.00000164
2
Step =     69  Time =     570.51096915  Total energy =      -1.169746224203  Kinetic energy =       0.001206791136  Potential energy =      -1.170953015339
H      -0.43812326      0.00295588      0.00134797      0.00081362     -0.00000546     -0.00000252
H       0.43811926     -0.00292790     -0.00136898     -0.00081362      0.00000546      0.00000252
2
Step =     70  Time =     578.77924406  Total energy =      -1.169749374369  Kinetic energy =       0.002152201033  Potential energy =      -1.171901575402
H      -0.43395254      0.00292787      0.00133504      0.00108655     -0.00000730     -0.00000337
H       0.43394854     -0.00289990     -0.00135605     -0.00108655      0.00000730      0.00000337
2
Step =     71  Time =     587.04751898  Total energy =      -1.169752982948  Kinetic energy =       0.003299072433  Potential energy =      -1.173052055381
H      -0.42861512      0.00289203      0.00131849      0.00134525     -0.00000903     -0.00000417
H       0.42861112     -0.00286406     -0.00133950     -0.00134525      0.00000903      0.00000417
2
Step =     72  Time =     595.31579389  Total energy =      -1.169757392789  Kinetic energy =       0.004588352414  Potential energy =      -1.174345745203
H      -0.42218055      0.00284882      0.00129854      0.00158649     -0.00001065     -0.00000492
H       0.42217655     -0.00282085     -0.00131955     -0.00158649      0.00001065      0.00000492
2
Step =     73  Time =     603.58406881  Total energy =      -1.169763755681  Kinetic energy =       0.005947578469  Potential energy =      -1.175711334149
H      -0.41473215      0.00279881      0.00127544      0.00180625     -0.00001213     -0.00000560
H       0.41472815     -0.00277083     -0.00129645     -0.00180625      0.00001213      0.00000560
2
Step =     74  Time =     611.85234372  Total energy =      -1.169771863351  Kinetic energy =       0.007281679458  Potential energy =      -1.177053542808
H      -0.40637447      0.00274269      0.00124952      0.00199859     -0.00001342     -0.00000620
H       0.40637047     -0.00271471     -0.00127054     -0.00199859      0.00001342      0.00000620
2
Step =     75  Time =     620.12061864  Total energy =      -1.169780861790  Kinetic energy =       0.008473391769  Potential energy =      -1.178254253559
H      -0.39724295      0.00268137      0.00122121      0.00215594     -0.00001448     -0.00000668
H       0.39723895     -0.00265340     -0.00124222     -0.00215594      0.00001448      0.00000668
2
Step =     76  Time =     628.38889355  Total energy =      -1.169790049548  Kinetic energy =       0.009393618176  Potential energy =      -1.179183667724
H      -0.38750834      0.00261601      0.00119103      0.00226999     -0.00001524     -0.00000704
H       0.38750434     -0.00258803     -0.00121204     -0.00226999      0.00001524      0.00000704
2
Step =     77  Time =     636.65716847  Total energy =      -1.169798476640  Kinetic energy =       0.009914094280  Potential energy =      -1.179712570920
H      -0.37737877      0.00254799      0.00115962      0.00233203     -0.00001566     -0.00000723
H       0.37737477     -0.00252001     -0.00118063     -0.00233203      0.00001566      0.00000723
2
Step =     78  Time =     644.92544338  Total energy =      -1.169804698064  Kinetic energy =       0.009923728563  Potential energy =      -1.179728426627
H      -0.36710127      0.00247898      0.00112775      0.00233317     -0.00001567     -0.00000723
H       0.36709727     -0.00245100     -0.00114876     -0.00233317      0.00001567      0.00000723
2
Step =     79  Time =     653.19371830  Total energy =      -1.169806837232  Kinetic energy =       0.009351335243  Potential energy =      -1.179158172475
H      -0.35696179      0.00241089      0.00109631      0.00226488     -0.00001521     -0.00000702
H       0.35695779     -0.00238292     -0.00111732     -0.00226488      0.00001521      0.00000702
2
Step =     80  Time =     661.46199321  Total energy =      -1.169802958933  Kinetic energy =       0.008193467241  Potential energy =      -1.177996426174
H      -0.34728185      0.00234589      0.00106630      0.00212003     -0.00001424     -0.00000657
H       0.34727785     -0.00231792     -0.00108731     -0.00212003      0.00001424      0.00000657
2
Step =     81  Time =     669.73026813  Total energy =      -1.169791814718  Kinetic energy =       0.006541276448  Potential energy =      -1.176333091166
H      -0.33840991      0.00228632      0.00103879      0.00189426     -0.00001272     -0.00000587
H       0.33840591     -0.00225835     -0.00105980     -0.00189426      0.00001272      0.00000587
2
Step =     82  Time =     677.99854304  Total energy =      -1.169773847702  Kinetic energy =       0.004595233518  Potential energy =      -1.174369081220
H      -0.33070564      0.00223458      0.00101490      0.00158768     -0.00001066     -0.00000492
H       0.33070164     -0.00220661     -0.00103591     -0.00158768      0.00001066      0.00000492
2
Step =     83  Time =     686.26681796  Total energy =      -1.169752008941  Kinetic energy =       0.002653569277  Potential energy =      -1.172405578218
H      -0.32451653      0.00219303      0.00099571      0.00120649     -0.00000810     -0.00000374
H       0.32451253     -0.00216506     -0.00101672     -0.00120649      0.00000810      0.00000374
2