   10
step    0
N  1.397  -0.001  -0.000
N  -1.397  0.001  0.000
C  0.700  -1.143  0.000
C  -0.702  -1.142  -0.000
C  0.702  1.142  -0.000
C  -0.700  1.143  0.000
H  1.265  -2.094  0.000
H  -1.268  -2.093  -0.000
H  1.268  2.093  -0.000
H  -1.265  2.094  0.000
   10
step    1
N  1.403  -0.003  0.004
N  -1.403  0.002  -0.006
C  0.696  -1.145  0.001
C  -0.700  -1.142  0.010
C  0.703  1.141  -0.003
C  -0.698  1.152  -0.004
H  1.265  -2.117  0.008
H  -1.273  -2.103  -0.015
H  1.247  2.091  -0.014
H  -1.262  2.082  0.016
   10
step    2
N  1.409  -0.006  0.007
N  -1.408  0.003  -0.012
C  0.692  -1.147  0.001
C  -0.698  -1.141  0.019
C  0.705  1.139  -0.006
C  -0.696  1.159  -0.007
H  1.262  -2.135  0.016
H  -1.277  -2.110  -0.030
H  1.229  2.092  -0.027
H  -1.260  2.074  0.031
   10
step    3
N  1.415  -0.008  0.011
N  -1.413  0.004  -0.019
C  0.690  -1.149  0.002
C  -0.697  -1.141  0.028
C  0.706  1.137  -0.009
C  -0.695  1.165  -0.010
H  1.256  -2.144  0.023
H  -1.277  -2.112  -0.043
H  1.215  2.097  -0.039
H  -1.263  2.075  0.046
   10
step    4
N  1.420  -0.010  0.014
N  -1.416  0.005  -0.024
C  0.689  -1.151  0.003
C  -0.697  -1.141  0.036
C  0.706  1.135  -0.012
C  -0.694  1.168  -0.013
H  1.245  -2.144  0.029
H  -1.273  -2.108  -0.056
H  1.207  2.106  -0.051
H  -1.269  2.085  0.059
   10
step    5
N  1.424  -0.012  0.017
N  -1.419  0.006  -0.030
C  0.690  -1.153  0.004
C  -0.699  -1.141  0.043
C  0.706  1.133  -0.014
C  -0.694  1.169  -0.016
H  1.232  -2.136  0.035
H  -1.265  -2.100  -0.066
H  1.204  2.118  -0.061
H  -1.278  2.100  0.072
   10
step    6
N  1.427  -0.013  0.020
N  -1.421  0.007  -0.035
C  0.692  -1.155  0.005
C  -0.700  -1.140  0.048
C  0.706  1.131  -0.016
C  -0.695  1.168  -0.018
H  1.219  -2.122  0.040
H  -1.255  -2.089  -0.074
H  1.204  2.128  -0.069
H  -1.285  2.116  0.083
   10
step    7
N  1.429  -0.014  0.022
N  -1.421  0.008  -0.040
C  0.696  -1.155  0.005
C  -0.703  -1.140  0.053
C  0.706  1.129  -0.017
C  -0.698  1.166  -0.020
H  1.207  -2.108  0.044
H  -1.244  -2.079  -0.080
H  1.207  2.135  -0.076
H  -1.289  2.129  0.091
   10
step    8
N  1.430  -0.014  0.024
N  -1.421  0.009  -0.043
C  0.700  -1.154  0.006
C  -0.705  -1.138  0.056
C  0.705  1.128  -0.018
C  -0.702  1.162  -0.020
H  1.202  -2.100  0.046
H  -1.236  -2.073  -0.083
H  1.212  2.136  -0.080
H  -1.288  2.136  0.097
   10
step    9
N  1.431  -0.014  0.025
N  -1.420  0.009  -0.046
C  0.704  -1.152  0.007
C  -0.707  -1.136  0.059
C  0.704  1.128  -0.019
C  -0.707  1.158  -0.019
H  1.204  -2.099  0.047
H  -1.231  -2.073  -0.085
H  1.216  2.130  -0.082
H  -1.282  2.134  0.100
   10
step   10
N  1.430  -0.012  0.024
N  -1.418  0.009  -0.048
C  0.709  -1.148  0.007
C  -0.708  -1.133  0.059
C  0.703  1.128  -0.019
C  -0.713  1.152  -0.018
H  1.214  -2.107  0.047
H  -1.230  -2.080  -0.085
H  1.222  2.117  -0.082
H  -1.271  2.124  0.100
   10
step   11
N  1.429  -0.011  0.023
N  -1.415  0.009  -0.049
C  0.712  -1.143  0.007
C  -0.709  -1.129  0.059
C  0.701  1.128  -0.019
C  -0.719  1.147  -0.015
H  1.229  -2.120  0.046
H  -1.233  -2.090  -0.083
H  1.228  2.101  -0.080
H  -1.257  2.109  0.098
   10
step   12
N  1.427  -0.009  0.022
N  -1.413  0.008  -0.049
C  0.716  -1.138  0.007
C  -0.708  -1.126  0.057
C  0.700  1.129  -0.019
C  -0.724  1.141  -0.012
H  1.246  -2.132  0.044
H  -1.238  -2.101  -0.079
H  1.236  2.083  -0.076
H  -1.245  2.093  0.092
   10
step   13
N  1.425  -0.006  0.019
N  -1.411  0.007  -0.048
C  0.718  -1.134  0.007
C  -0.707  -1.122  0.054
C  0.697  1.129  -0.018
C  -0.727  1.135  -0.008
H  1.262  -2.138  0.040
H  -1.243  -2.109  -0.072
H  1.246  2.068  -0.070
H  -1.235  2.081  0.085
   10
step   14
N  1.422  -0.004  0.017
N  -1.409  0.005  -0.047
C  0.720  -1.130  0.007
C  -0.705  -1.120  0.049
C  0.694  1.128  -0.016
C  -0.728  1.129  -0.004
H  1.274  -2.136  0.034
H  -1.247  -2.111  -0.063
H  1.259  2.057  -0.063
H  -1.231  2.076  0.076
   10
step   15
N  1.419  -0.001  0.014
N  -1.408  0.003  -0.046
C  0.721  -1.128  0.008
C  -0.703  -1.118  0.042
C  0.691  1.127  -0.014
C  -0.727  1.124  0.001
H  1.282  -2.124  0.029
H  -1.249  -2.106  -0.052
H  1.274  2.051  -0.054
H  -1.234  2.079  0.065
   10
step   16
N  1.416  0.002  0.011
N  -1.408  0.001  -0.044
C  0.721  -1.127  0.008
C  -0.701  -1.118  0.035
C  0.688  1.126  -0.011
C  -0.724  1.120  0.006
H  1.286  -2.103  0.022
H  -1.250  -2.095  -0.039
H  1.290  2.050  -0.044
H  -1.243  2.089  0.053
   10
step   17
N  1.412  0.005  0.008
N  -1.409  -0.001  -0.041
C  0.720  -1.127  0.009
C  -0.698  -1.119  0.026
C  0.686  1.124  -0.007
C  -0.719  1.118  0.011
H  1.285  -2.078  0.015
H  -1.249  -2.079  -0.024
H  1.304  2.052  -0.033
H  -1.254  2.100  0.041
   10
step   18
N  1.409  0.007  0.004
N  -1.410  -0.003  -0.038
C  0.717  -1.129  0.009
C  -0.694  -1.120  0.017
C  0.684  1.123  -0.004
C  -0.713  1.118  0.017
H  1.283  -2.054  0.008
H  -1.250  -2.063  -0.008
H  1.314  2.055  -0.021
H  -1.264  2.109  0.028
   10
step   19
N  1.405  0.008  0.000
N  -1.411  -0.005  -0.035
C  0.714  -1.130  0.010
C  -0.691  -1.122  0.007
C  0.684  1.122  0.000
C  -0.706  1.119  0.022
H  1.282  -2.036  0.001
H  -1.252  -2.051  0.008
H  1.318  2.056  -0.008
H  -1.272  2.113  0.014
   10
step   20
N  1.402  0.009  -0.004
N  -1.413  -0.006  -0.031
C  0.710  -1.132  0.010
C  -0.688  -1.124  -0.004
C  0.685  1.122  0.004
C  -0.699  1.123  0.027
H  1.285  -2.030  -0.005
H  -1.257  -2.045  0.025
H  1.316  2.055  0.006
H  -1.275  2.109  0.001
   10
step   21
N  1.398  0.008  -0.009
N  -1.414  -0.006  -0.027
C  0.704  -1.133  0.011
C  -0.686  -1.126  -0.014
C  0.688  1.123  0.008
C  -0.693  1.128  0.032
H  1.292  -2.037  -0.011
H  -1.264  -2.047  0.041
H  1.308  2.053  0.019
H  -1.273  2.098  -0.012
   10
step   22
N  1.395  0.007  -0.013
N  -1.415  -0.006  -0.022
C  0.699  -1.134  0.012
C  -0.684  -1.128  -0.024
C  0.692  1.125  0.012
C  -0.688  1.134  0.037
H  1.301  -2.054  -0.016
H  -1.274  -2.056  0.057
H  1.296  2.051  0.032
H  -1.266  2.082  -0.025
   10
step   23
N  1.392  0.005  -0.018
N  -1.415  -0.005  -0.017
C  0.694  -1.135  0.013
C  -0.684  -1.130  -0.033
C  0.697  1.128  0.016
C  -0.684  1.140  0.040
H  1.308  -2.075  -0.021
H  -1.282  -2.068  0.071
H  1.281  2.052  0.045
H  -1.258  2.066  -0.036
   10
step   24
N  1.389  0.002  -0.023
N  -1.414  -0.003  -0.011
C  0.691  -1.137  0.013
C  -0.686  -1.133  -0.042
C  0.703  1.131  0.019
C  -0.682  1.145  0.043
H  1.310  -2.094  -0.024
H  -1.286  -2.081  0.083
H  1.266  2.058  0.056
H  -1.250  2.055  -0.046
   10
step   25
N  1.387  -0.001  -0.028
N  -1.412  -0.001  -0.006
C  0.689  -1.140  0.014
C  -0.690  -1.136  -0.049
C  0.709  1.134  0.022
C  -0.682  1.150  0.045
H  1.306  -2.108  -0.026
H  -1.286  -2.090  0.093
H  1.255  2.070  0.066
H  -1.246  2.053  -0.055
   10
step   26
N  1.385  -0.004  -0.033
N  -1.409  0.001  0.000
C  0.689  -1.143  0.015
C  -0.695  -1.140  -0.055
C  0.715  1.139  0.024
C  -0.682  1.152  0.047
H  1.295  -2.113  -0.027
H  -1.280  -2.096  0.100
H  1.247  2.089  0.075
H  -1.247  2.062  -0.062
   10
step   27
N  1.384  -0.008  -0.038
N  -1.405  0.004  0.007
C  0.691  -1.146  0.015
C  -0.702  -1.144  -0.059
C  0.719  1.143  0.025
C  -0.683  1.153  0.047
H  1.278  -2.111  -0.025
H  -1.270  -2.098  0.103
H  1.244  2.111  0.082
H  -1.252  2.080  -0.068
   10
step   28
N  1.383  -0.010  -0.043
N  -1.400  0.006  0.013
C  0.693  -1.151  0.015
C  -0.709  -1.149  -0.061
C  0.723  1.148  0.026
C  -0.686  1.153  0.047
H  1.259  -2.103  -0.022
H  -1.258  -2.097  0.103
H  1.243  2.134  0.086
H  -1.260  2.102  -0.070
   10
step   29
N  1.383  -0.013  -0.048
N  -1.394  0.008  0.019
C  0.696  -1.154  0.015
C  -0.716  -1.153  -0.062
C  0.726  1.154  0.026
C  -0.689  1.152  0.045
H  1.240  -2.095  -0.017
H  -1.246  -2.096  0.099
H  1.244  2.152  0.088
H  -1.266  2.123  -0.070
   10
step   30
N  1.383  -0.014  -0.051
N  -1.388  0.010  0.024
C  0.698  -1.158  0.015
C  -0.722  -1.157  -0.060
C  0.727  1.159  0.026
C  -0.693  1.151  0.043
H  1.225  -2.090  -0.010
H  -1.237  -2.098  0.093
H  1.245  2.164  0.088
H  -1.270  2.137  -0.067
   10
step   31
N  1.384  -0.014  -0.054
N  -1.383  0.010  0.029
C  0.699  -1.160  0.015
C  -0.726  -1.161  -0.058
C  0.727  1.165  0.025
C  -0.697  1.151  0.039
H  1.219  -2.094  -0.002
H  -1.233  -2.105  0.085
H  1.247  2.168  0.085
H  -1.271  2.142  -0.061
   10
step   32
N  1.385  -0.013  -0.056
N  -1.377  0.010  0.032
C  0.699  -1.161  0.015
C  -0.729  -1.164  -0.054
C  0.725  1.171  0.024
C  -0.701  1.151  0.034
H  1.221  -2.108  0.007
H  -1.237  -2.118  0.074
H  1.248  2.163  0.080
H  -1.268  2.137  -0.051
   10
step   33
N  1.386  -0.011  -0.056
N  -1.372  0.009  0.034
C  0.698  -1.161  0.015
C  -0.729  -1.166  -0.049
C  0.722  1.176  0.022
C  -0.705  1.151  0.028
H  1.230  -2.126  0.017
H  -1.246  -2.134  0.062
H  1.250  2.152  0.072
H  -1.263  2.124  -0.040
   10
step   34
N  1.388  -0.008  -0.055
N  -1.368  0.006  0.035
C  0.696  -1.160  0.015
C  -0.727  -1.168  -0.043
C  0.718  1.181  0.020
C  -0.708  1.153  0.022
H  1.243  -2.145  0.027
H  -1.259  -2.149  0.048
H  1.254  2.137  0.063
H  -1.258  2.106  -0.027
   10
step   35
N  1.389  -0.004  -0.054
N  -1.365  0.003  0.036
C  0.694  -1.159  0.015
C  -0.724  -1.169  -0.035
C  0.713  1.183  0.018
C  -0.709  1.154  0.015
H  1.256  -2.157  0.037
H  -1.273  -2.159  0.032
H  1.260  2.123  0.052
H  -1.256  2.088  -0.012
   10
step   36
N  1.390  0.001  -0.051
N  -1.363  -0.000  0.035
C  0.691  -1.158  0.015
C  -0.720  -1.171  -0.027
C  0.707  1.184  0.015
C  -0.708  1.156  0.007
H  1.266  -2.160  0.046
H  -1.287  -2.160  0.015
H  1.271  2.111  0.039
H  -1.260  2.075  0.003
   10
step   37
N  1.390  0.005  -0.048
N  -1.362  -0.005  0.034
C  0.689  -1.157  0.015
C  -0.715  -1.173  -0.018
C  0.701  1.182  0.012
C  -0.706  1.157  -0.001
H  1.273  -2.151  0.056
H  -1.299  -2.152  -0.003
H  1.284  2.104  0.026
H  -1.270  2.072  0.019
   10
step   38
N  1.390  0.010  -0.043
N  -1.362  -0.009  0.032
C  0.688  -1.156  0.014
C  -0.709  -1.174  -0.009
C  0.694  1.179  0.008
C  -0.703  1.157  -0.009
H  1.274  -2.131  0.064
H  -1.307  -2.135  -0.021
H  1.300  2.100  0.011
H  -1.287  2.076  0.035
   10
step   39
N  1.388  0.014  -0.037
N  -1.362  -0.012  0.029
C  0.687  -1.155  0.014
C  -0.704  -1.175  0.001
C  0.689  1.174  0.004
C  -0.700  1.157  -0.016
H  1.272  -2.104  0.071
H  -1.312  -2.111  -0.038
H  1.314  2.098  -0.004
H  -1.305  2.085  0.051
   10
step   40
N  1.386  0.017  -0.031
N  -1.363  -0.016  0.026
C  0.688  -1.154  0.014
C  -0.700  -1.176  0.010
C  0.685  1.168  0.000
C  -0.696  1.157  -0.024
H  1.268  -2.074  0.076
H  -1.316  -2.085  -0.055
H  1.325  2.095  -0.019
H  -1.322  2.095  0.066
   10
step   41
N  1.384  0.020  -0.024
N  -1.365  -0.018  0.021
C  0.689  -1.151  0.013
C  -0.696  -1.176  0.019
C  0.683  1.162  -0.004
C  -0.694  1.156  -0.030
H  1.267  -2.049  0.081
H  -1.318  -2.061  -0.070
H  1.330  2.089  -0.033
H  -1.334  2.099  0.079
   10
step   42
N  1.380  0.020  -0.017
N  -1.366  -0.019  0.017
C  0.690  -1.148  0.012
C  -0.692  -1.174  0.027
C  0.684  1.156  -0.008
C  -0.693  1.156  -0.035
H  1.270  -2.035  0.083
H  -1.322  -2.044  -0.084
H  1.330  2.080  -0.047
H  -1.338  2.098  0.090
   10
step   43
N  1.377  0.020  -0.009
N  -1.368  -0.018  0.013
C  0.692  -1.144  0.010
C  -0.690  -1.171  0.035
C  0.686  1.150  -0.012
C  -0.694  1.156  -0.039
H  1.281  -2.034  0.084
H  -1.328  -2.038  -0.097
H  1.323  2.069  -0.059
H  -1.333  2.089  0.098
   10
step   44
N  1.373  0.018  -0.002
N  -1.369  -0.016  0.009
C  0.694  -1.139  0.007
C  -0.689  -1.167  0.041
C  0.690  1.144  -0.016
C  -0.696  1.155  -0.042
H  1.295  -2.045  0.083
H  -1.334  -2.042  -0.107
H  1.313  2.058  -0.070
H  -1.320  2.075  0.104
   10
step   45
N  1.370  0.014  0.005
N  -1.371  -0.013  0.005
C  0.696  -1.134  0.005
C  -0.690  -1.161  0.047
C  0.695  1.140  -0.019
C  -0.698  1.155  -0.043
H  1.311  -2.062  0.080
H  -1.338  -2.052  -0.115
H  1.300  2.049  -0.079
H  -1.303  2.060  0.106
   10
step   46
N  1.368  0.009  0.013
N  -1.373  -0.008  0.000
C  0.699  -1.130  0.002
C  -0.691  -1.156  0.050
C  0.701  1.136  -0.023
C  -0.702  1.153  -0.043
H  1.324  -2.079  0.074
H  -1.338  -2.065  -0.119
H  1.289  2.047  -0.086
H  -1.284  2.048  0.105
   10
step   47
N  1.367  0.003  0.020
N  -1.375  -0.002  -0.004
C  0.702  -1.128  -0.001
C  -0.694  -1.150  0.053
C  0.705  1.132  -0.025
C  -0.704  1.151  -0.042
H  1.330  -2.091  0.066
H  -1.332  -2.076  -0.121
H  1.280  2.051  -0.091
H  -1.269  2.046  0.102
   10
step   48
N  1.367  -0.003  0.028
N  -1.378  0.003  -0.009
C  0.705  -1.129  -0.003
C  -0.698  -1.145  0.053
C  0.709  1.130  -0.028
C  -0.706  1.148  -0.040
H  1.330  -2.096  0.056
H  -1.318  -2.083  -0.118
H  1.275  2.063  -0.094
H  -1.259  2.055  0.097
   10
step   49
N  1.369  -0.009  0.036
N  -1.381  0.009  -0.014
C  0.708  -1.131  -0.005
C  -0.702  -1.140  0.052
C  0.711  1.129  -0.029
C  -0.707  1.145  -0.038
H  1.322  -2.092  0.045
H  -1.299  -2.085  -0.112
H  1.272  2.078  -0.095
H  -1.255  2.075  0.090
   10
step   50
N  1.372  -0.014  0.044
N  -1.385  0.014  -0.018
C  0.710  -1.136  -0.007
C  -0.705  -1.136  0.049
C  0.712  1.129  -0.031
C  -0.706  1.141  -0.034
H  1.309  -2.083  0.032
H  -1.275  -2.084  -0.103
H  1.270  2.094  -0.094
H  -1.254  2.101  0.081
   10
step   51
N  1.377  -0.018  0.051
N  -1.389  0.018  -0.022
C  0.711  -1.143  -0.009
C  -0.709  -1.132  0.045
C  0.712  1.130  -0.031
C  -0.705  1.139  -0.030
H  1.292  -2.071  0.018
H  -1.249  -2.081  -0.091
H  1.269  2.107  -0.090
H  -1.254  2.125  0.069
   10
step   52
N  1.383  -0.021  0.057
N  -1.394  0.021  -0.025
C  0.711  -1.150  -0.011
C  -0.711  -1.129  0.039
C  0.710  1.132  -0.031
C  -0.703  1.137  -0.025
H  1.277  -2.063  0.003
H  -1.226  -2.080  -0.077
H  1.265  2.115  -0.084
H  -1.253  2.143  0.056
   10
step   53
N  1.390  -0.023  0.062
N  -1.400  0.023  -0.028
C  0.709  -1.157  -0.014
C  -0.711  -1.126  0.033
C  0.708  1.135  -0.031
C  -0.700  1.138  -0.019
H  1.266  -2.065  -0.012
H  -1.208  -2.083  -0.062
H  1.260  2.117  -0.076
H  -1.249  2.152  0.040
   10
step   54
N  1.398  -0.023  0.065
N  -1.406  0.023  -0.029
C  0.706  -1.162  -0.016
C  -0.710  -1.123  0.026
C  0.705  1.138  -0.030
C  -0.698  1.139  -0.013
H  1.262  -2.078  -0.028
H  -1.196  -2.092  -0.045
H  1.253  2.112  -0.066
H  -1.242  2.149  0.022
   10
step   55
N  1.405  -0.022  0.068
N  -1.413  0.022  -0.029
C  0.703  -1.167  -0.018
C  -0.708  -1.120  0.018
C  0.702  1.141  -0.029
C  -0.696  1.143  -0.006
H  1.262  -2.101  -0.043
H  -1.191  -2.105  -0.028
H  1.245  2.104  -0.055
H  -1.233  2.137  0.004
   10
step   56
N  1.413  -0.019  0.069
N  -1.419  0.020  -0.028
C  0.700  -1.169  -0.020
C  -0.705  -1.119  0.010
C  0.699  1.144  -0.027
C  -0.694  1.146  0.000
H  1.264  -2.128  -0.059
H  -1.191  -2.119  -0.011
H  1.238  2.095  -0.044
H  -1.224  2.118  -0.016
   10
step   57
N  1.420  -0.016  0.069
N  -1.425  0.016  -0.026
C  0.697  -1.170  -0.021
C  -0.701  -1.117  0.001
C  0.696  1.145  -0.025
C  -0.693  1.150  0.007
H  1.265  -2.152  -0.073
H  -1.195  -2.130  0.007
H  1.233  2.089  -0.032
H  -1.217  2.099  -0.036
   10
step   58
N  1.425  -0.013  0.068
N  -1.431  0.012  -0.024
C  0.696  -1.169  -0.023
C  -0.697  -1.117  -0.008
C  0.694  1.145  -0.022
C  -0.693  1.153  0.013
H  1.262  -2.168  -0.087
H  -1.201  -2.135  0.023
H  1.231  2.087  -0.019
H  -1.215  2.085  -0.056
   10
step   59
N  1.430  -0.008  0.066
N  -1.435  0.008  -0.020
C  0.698  -1.168  -0.024
C  -0.694  -1.118  -0.017
C  0.692  1.144  -0.019
C  -0.694  1.154  0.019
H  1.254  -2.173  -0.098
H  -1.207  -2.132  0.039
H  1.233  2.091  -0.007
H  -1.221  2.080  -0.074
   10
step   60
N  1.433  -0.004  0.062
N  -1.438  0.003  -0.016
C  0.701  -1.165  -0.026
C  -0.691  -1.120  -0.025
C  0.690  1.141  -0.016
C  -0.696  1.154  0.024
H  1.241  -2.166  -0.107
H  -1.212  -2.121  0.053
H  1.237  2.098  0.005
H  -1.234  2.086  -0.092
   10
step   61
N  1.434  -0.000  0.057
N  -1.440  -0.001  -0.011
C  0.705  -1.161  -0.027
C  -0.690  -1.123  -0.033
C  0.690  1.137  -0.012
C  -0.699  1.152  0.029
H  1.225  -2.150  -0.114
H  -1.217  -2.104  0.065
H  1.242  2.106  0.016
H  -1.250  2.099  -0.107
   10
step   62
N  1.434  0.003  0.051
N  -1.440  -0.005  -0.005
C  0.711  -1.155  -0.028
C  -0.689  -1.126  -0.040
C  0.691  1.134  -0.008
C  -0.704  1.149  0.033
H  1.209  -2.128  -0.117
H  -1.222  -2.085  0.075
H  1.246  2.112  0.026
H  -1.267  2.112  -0.120
   10
step   63
N  1.434  0.006  0.045
N  -1.439  -0.009  0.001
C  0.717  -1.149  -0.028
C  -0.690  -1.128  -0.046
C  0.693  1.130  -0.004
C  -0.709  1.146  0.036
H  1.196  -2.108  -0.117
H  -1.229  -2.066  0.082
H  1.249  2.113  0.035
H  -1.281  2.121  -0.128
   10
step   64
N  1.432  0.008  0.038
N  -1.437  -0.011  0.007
C  0.723  -1.141  -0.028
C  -0.691  -1.130  -0.051
C  0.696  1.126  -0.000
C  -0.715  1.142  0.037
H  1.190  -2.094  -0.115
H  -1.239  -2.053  0.087
H  1.249  2.108  0.042
H  -1.290  2.123  -0.133
   10
step   65
N  1.430  0.009  0.032
N  -1.433  -0.013  0.013
C  0.727  -1.132  -0.027
C  -0.692  -1.131  -0.055
C  0.700  1.123  0.003
C  -0.722  1.138  0.036
H  1.193  -2.091  -0.110
H  -1.252  -2.048  0.090
H  1.248  2.098  0.048
H  -1.292  2.116  -0.134
   10
step   66
N  1.427  0.009  0.025
N  -1.429  -0.013  0.018
C  0.729  -1.122  -0.025
C  -0.693  -1.132  -0.058
C  0.703  1.120  0.007
C  -0.728  1.135  0.034
H  1.205  -2.096  -0.103
H  -1.267  -2.051  0.091
H  1.246  2.085  0.052
H  -1.289  2.101  -0.132
   10
step   67
N  1.425  0.008  0.019
N  -1.424  -0.012  0.023
C  0.730  -1.114  -0.023
C  -0.695  -1.131  -0.060
C  0.705  1.118  0.010
C  -0.733  1.133  0.030
H  1.224  -2.106  -0.095
H  -1.282  -2.060  0.090
H  1.245  2.071  0.054
H  -1.281  2.082  -0.126
   10
step   68
N  1.422  0.006  0.012
N  -1.419  -0.010  0.028
C  0.728  -1.108  -0.020
C  -0.697  -1.130  -0.059
C  0.707  1.117  0.013
C  -0.736  1.130  0.025
H  1.244  -2.115  -0.084
H  -1.296  -2.069  0.085
H  1.248  2.060  0.054
H  -1.272  2.064  -0.117
   10
step   69
N  1.421  0.004  0.006
N  -1.414  -0.007  0.032
C  0.724  -1.104  -0.018
C  -0.699  -1.130  -0.058
C  0.708  1.117  0.015
C  -0.737  1.128  0.020
H  1.263  -2.116  -0.072
H  -1.305  -2.077  0.078
H  1.254  2.054  0.053
H  -1.266  2.052  -0.107
   10
step   70
N  1.420  0.002  -0.001
N  -1.409  -0.004  0.037
C  0.719  -1.104  -0.015
C  -0.701  -1.129  -0.054
C  0.707  1.117  0.017
C  -0.735  1.126  0.014
H  1.279  -2.109  -0.058
H  -1.309  -2.081  0.069
H  1.263  2.054  0.051
H  -1.264  2.050  -0.095
   10
step   71
N  1.419  -0.001  -0.008
N  -1.405  -0.001  0.041
C  0.712  -1.106  -0.013
C  -0.704  -1.129  -0.049
C  0.705  1.118  0.018
C  -0.730  1.125  0.007
H  1.290  -2.093  -0.044
H  -1.307  -2.080  0.057
H  1.275  2.059  0.047
H  -1.267  2.059  -0.081
   10
step   72
N  1.419  -0.003  -0.015
N  -1.401  0.002  0.045
C  0.705  -1.112  -0.010
C  -0.706  -1.130  -0.043
C  0.702  1.119  0.018
C  -0.722  1.124  0.000
H  1.295  -2.071  -0.028
H  -1.299  -2.074  0.042
H  1.287  2.066  0.042
H  -1.274  2.075  -0.067
   10
step   73
N  1.419  -0.005  -0.021
N  -1.398  0.005  0.048
C  0.697  -1.120  -0.007
C  -0.709  -1.131  -0.036
C  0.700  1.122  0.018
C  -0.713  1.124  -0.008
H  1.297  -2.046  -0.012
H  -1.289  -2.067  0.027
H  1.297  2.073  0.035
H  -1.281  2.093  -0.050
   10
step   74
N  1.418  -0.006  -0.026
N  -1.396  0.008  0.051
C  0.689  -1.128  -0.004
C  -0.711  -1.133  -0.028
C  0.697  1.125  0.018
C  -0.704  1.126  -0.015
H  1.297  -2.025  0.003
H  -1.278  -2.062  0.010
H  1.302  2.078  0.028
H  -1.285  2.108  -0.033
   10
step   75
N  1.416  -0.007  -0.031
N  -1.395  0.009  0.053
C  0.682  -1.137  -0.002
C  -0.712  -1.134  -0.019
C  0.696  1.129  0.017
C  -0.694  1.129  -0.023
H  1.297  -2.015  0.019
H  -1.268  -2.062  -0.007
H  1.302  2.079  0.020
H  -1.285  2.115  -0.015
   10
step   76
N  1.414  -0.007  -0.035
N  -1.394  0.010  0.054
C  0.676  -1.144  0.001
C  -0.712  -1.136  -0.010
C  0.695  1.134  0.016
C  -0.686  1.134  -0.031
H  1.299  -2.019  0.034
H  -1.262  -2.069  -0.023
H  1.295  2.078  0.012
H  -1.279  2.114  0.002
   10
step   77
N  1.411  -0.006  -0.039
N  -1.394  0.011  0.054
C  0.672  -1.150  0.004
C  -0.712  -1.138  -0.001
C  0.696  1.139  0.014
C  -0.680  1.139  -0.038
H  1.303  -2.037  0.048
H  -1.260  -2.083  -0.039
H  1.285  2.076  0.004
H  -1.267  2.104  0.019
   10
step   78
N  1.406  -0.005  -0.041
N  -1.394  0.010  0.053
C  0.670  -1.154  0.006
C  -0.712  -1.140  0.009
C  0.698  1.144  0.012
C  -0.676  1.144  -0.044
H  1.306  -2.063  0.060
H  -1.260  -2.100  -0.054
H  1.272  2.075  -0.003
H  -1.253  2.089  0.035
   10
step   79
N  1.401  -0.003  -0.043
N  -1.393  0.009  0.052
C  0.670  -1.157  0.008
C  -0.712  -1.143  0.017
C  0.701  1.148  0.010
C  -0.673  1.149  -0.049
H  1.305  -2.090  0.070
H  -1.261  -2.116  -0.066
H  1.259  2.079  -0.010
H  -1.238  2.074  0.049
   10
step   80
N  1.394  -0.001  -0.044
N  -1.393  0.008  0.050
C  0.674  -1.159  0.009
C  -0.711  -1.146  0.026
C  0.704  1.152  0.008
C  -0.673  1.153  -0.053
H  1.298  -2.113  0.078
H  -1.262  -2.129  -0.077
H  1.249  2.088  -0.016
H  -1.226  2.064  0.061
   10
step   81
N  1.388  0.001  -0.043
N  -1.392  0.006  0.046
C  0.680  -1.161  0.011
C  -0.711  -1.150  0.033
C  0.708  1.155  0.005
C  -0.675  1.156  -0.056
H  1.285  -2.129  0.084
H  -1.260  -2.135  -0.084
H  1.242  2.104  -0.020
H  -1.221  2.064  0.071
   10
step   82
N  1.381  0.003  -0.041
N  -1.391  0.004  0.041
C  0.688  -1.161  0.012
C  -0.711  -1.155  0.039
C  0.711  1.158  0.003
C  -0.678  1.156  -0.058
H  1.267  -2.136  0.087
H  -1.257  -2.135  -0.088
H  1.239  2.123  -0.023
H  -1.223  2.074  0.080
   10
step   83
N  1.374  0.004  -0.039
N  -1.390  0.001  0.035
C  0.697  -1.161  0.013
C  -0.711  -1.160  0.044
C  0.714  1.161  0.001
C  -0.682  1.155  -0.058
H  1.247  -2.135  0.088
H  -1.253  -2.128  -0.089
H  1.239  2.143  -0.025
H  -1.231  2.093  0.086
   10
step   84
N  1.368  0.005  -0.035
N  -1.389  -0.001  0.028
C  0.706  -1.160  0.014
C  -0.710  -1.164  0.048
C  0.717  1.164  -0.001
C  -0.686  1.153  -0.058
H  1.227  -2.129  0.086
H  -1.249  -2.118  -0.087
H  1.241  2.159  -0.026
H  -1.242  2.114  0.091
   10
step   85
N  1.363  0.006  -0.030
N  -1.387  -0.003  0.021
C  0.714  -1.158  0.014
C  -0.709  -1.169  0.050
C  0.718  1.167  -0.003
C  -0.691  1.151  -0.055
H  1.211  -2.122  0.082
H  -1.248  -2.108  -0.082
H  1.243  2.168  -0.025
H  -1.253  2.131  0.092
   10
step   86
N  1.360  0.007  -0.026
N  -1.385  -0.006  0.013
C  0.720  -1.156  0.014
C  -0.706  -1.172  0.051
C  0.718  1.170  -0.005
C  -0.697  1.149  -0.051
H  1.203  -2.117  0.076
H  -1.250  -2.101  -0.075
H  1.247  2.168  -0.023
H  -1.262  2.141  0.090
   10
step   87
N  1.357  0.007  -0.021
N  -1.383  -0.008  0.005
C  0.723  -1.154  0.013
C  -0.703  -1.173  0.051
C  0.718  1.173  -0.006
C  -0.702  1.148  -0.045
H  1.204  -2.119  0.068
H  -1.257  -2.099  -0.066
H  1.251  2.161  -0.020
H  -1.267  2.140  0.085
   10
step   88
N  1.357  0.006  -0.016
N  -1.381  -0.009  -0.002
C  0.724  -1.152  0.012
C  -0.700  -1.173  0.050
C  0.716  1.176  -0.007
C  -0.706  1.147  -0.038
H  1.214  -2.125  0.058
H  -1.268  -2.102  -0.055
H  1.257  2.147  -0.016
H  -1.269  2.130  0.077
   10
step   89
N  1.358  0.006  -0.011
N  -1.379  -0.010  -0.010
C  0.722  -1.150  0.010
C  -0.696  -1.172  0.047
C  0.713  1.179  -0.008
C  -0.710  1.147  -0.029
H  1.232  -2.133  0.046
H  -1.282  -2.108  -0.043
H  1.265  2.129  -0.012
H  -1.268  2.113  0.067
   10
step   90
N  1.360  0.006  -0.006
N  -1.377  -0.011  -0.018
C  0.718  -1.149  0.008
C  -0.692  -1.169  0.044
C  0.709  1.180  -0.008
C  -0.712  1.148  -0.020
H  1.253  -2.139  0.032
H  -1.295  -2.113  -0.029
H  1.277  2.111  -0.007
H  -1.267  2.093  0.054
   10
step   91
N  1.363  0.005  -0.001
N  -1.376  -0.011  -0.025
C  0.712  -1.149  0.006
C  -0.689  -1.166  0.039
C  0.704  1.180  -0.008
C  -0.712  1.149  -0.010
H  1.275  -2.138  0.018
H  -1.306  -2.115  -0.013
H  1.291  2.096  -0.001
H  -1.269  2.074  0.040
   10
step   92
N  1.367  0.005  0.004
N  -1.374  -0.011  -0.033
C  0.706  -1.150  0.004
C  -0.687  -1.162  0.033
C  0.699  1.178  -0.007
C  -0.711  1.150  0.000
H  1.294  -2.130  0.003
H  -1.312  -2.111  0.003
H  1.309  2.084  0.005
H  -1.275  2.063  0.024
   10
step   93
N  1.372  0.004  0.009
N  -1.373  -0.010  -0.040
C  0.699  -1.153  0.002
C  -0.687  -1.158  0.027
C  0.694  1.174  -0.005
C  -0.708  1.150  0.011
H  1.308  -2.114  -0.012
H  -1.312  -2.101  0.019
H  1.327  2.077  0.011
H  -1.287  2.062  0.009
   10
step   94
N  1.376  0.003  0.013
N  -1.372  -0.008  -0.046
C  0.693  -1.156  -0.000
C  -0.689  -1.154  0.020
C  0.691  1.169  -0.004
C  -0.704  1.150  0.021
H  1.317  -2.092  -0.027
H  -1.308  -2.088  0.036
H  1.343  2.071  0.017
H  -1.302  2.068  -0.006
   10
step   95
N  1.381  0.002  0.017
N  -1.371  -0.006  -0.052
C  0.688  -1.159  -0.003
C  -0.691  -1.150  0.013
C  0.688  1.163  -0.002
C  -0.700  1.151  0.031
H  1.320  -2.067  -0.040
H  -1.300  -2.072  0.052
H  1.355  2.066  0.022
H  -1.318  2.079  -0.021
   10
step   96
N  1.384  -0.000  0.020
N  -1.370  -0.003  -0.056
C  0.684  -1.161  -0.005
C  -0.695  -1.147  0.006
C  0.687  1.157  0.001
C  -0.697  1.151  0.040
H  1.320  -2.044  -0.052
H  -1.291  -2.059  0.066
H  1.360  2.060  0.027
H  -1.330  2.089  -0.034
   10
step   97
N  1.387  -0.002  0.023
N  -1.370  0.000  -0.061
C  0.682  -1.162  -0.006
C  -0.699  -1.143  -0.000
C  0.688  1.150  0.003
C  -0.695  1.152  0.048
H  1.319  -2.029  -0.062
H  -1.284  -2.051  0.080
H  1.356  2.053  0.032
H  -1.337  2.095  -0.046
   10
step   98
N  1.389  -0.004  0.025
N  -1.370  0.004  -0.064
C  0.682  -1.162  -0.007
C  -0.704  -1.140  -0.007
C  0.690  1.143  0.005
C  -0.694  1.153  0.054
H  1.319  -2.026  -0.071
H  -1.279  -2.051  0.091
H  1.346  2.047  0.036
H  -1.336  2.095  -0.055
   10
step   99
N  1.391  -0.005  0.027
N  -1.371  0.008  -0.067
C  0.683  -1.160  -0.008
C  -0.708  -1.136  -0.012
C  0.694  1.136  0.008
C  -0.695  1.154  0.059
H  1.319  -2.035  -0.077
H  -1.278  -2.059  0.101
H  1.329  2.042  0.039
H  -1.327  2.088  -0.062
   10
step  100
N  1.392  -0.007  0.028
N  -1.373  0.011  -0.069
C  0.685  -1.156  -0.008
C  -0.711  -1.134  -0.017
C  0.698  1.130  0.010
C  -0.697  1.156  0.063
H  1.320  -2.054  -0.082
H  -1.280  -2.072  0.108
H  1.309  2.041  0.041
H  -1.313  2.078  -0.067
   10
step  101
N  1.392  -0.009  0.028
N  -1.375  0.014  -0.069
C  0.689  -1.152  -0.007
C  -0.714  -1.132  -0.021
C  0.702  1.124  0.012
C  -0.700  1.157  0.065
H  1.318  -2.077  -0.084
H  -1.282  -2.087  0.113
H  1.287  2.045  0.042
H  -1.296  2.066  -0.070
   10
step  102
N  1.393  -0.010  0.027
N  -1.378  0.017  -0.069
C  0.694  -1.147  -0.006
C  -0.715  -1.132  -0.024
C  0.706  1.120  0.014
C  -0.703  1.158  0.065
H  1.311  -2.097  -0.084
H  -1.282  -2.099  0.115
H  1.266  2.056  0.042
H  -1.279  2.060  -0.070
   10
step  103
N  1.394  -0.011  0.025
N  -1.382  0.019  -0.067
C  0.700  -1.143  -0.005
C  -0.716  -1.133  -0.026
C  0.708  1.116  0.015
C  -0.706  1.157  0.065
H  1.299  -2.113  -0.081
H  -1.280  -2.106  0.113
H  1.248  2.071  0.041
H  -1.266  2.062  -0.069
   10
step  104
N  1.395  -0.012  0.022
N  -1.387  0.020  -0.063
C  0.706  -1.140  -0.005
C  -0.715  -1.135  -0.026
C  0.709  1.115  0.016
C  -0.708  1.156  0.063
H  1.282  -2.121  -0.077
H  -1.276  -2.107  0.108
H  1.233  2.089  0.039
H  -1.258  2.074  -0.067
   10
step  105
N  1.397  -0.012  0.018
N  -1.392  0.020  -0.059
C  0.712  -1.138  -0.004
C  -0.713  -1.137  -0.025
C  0.709  1.114  0.016
C  -0.710  1.153  0.060
H  1.262  -2.121  -0.069
H  -1.269  -2.103  0.100
H  1.220  2.107  0.036
H  -1.254  2.095  -0.062
   10
step  106
N  1.400  -0.011  0.013
N  -1.397  0.019  -0.053
C  0.716  -1.137  -0.003
C  -0.710  -1.140  -0.023
C  0.707  1.116  0.016
C  -0.711  1.150  0.056
H  1.242  -2.116  -0.060
H  -1.260  -2.094  0.090
H  1.209  2.121  0.032
H  -1.253  2.118  -0.056
   10
step  107
N  1.403  -0.010  0.007
N  -1.403  0.016  -0.046
C  0.720  -1.137  -0.002
C  -0.706  -1.143  -0.020
C  0.703  1.119  0.016
C  -0.711  1.147  0.051
H  1.224  -2.108  -0.048
H  -1.253  -2.085  0.077
H  1.200  2.129  0.027
H  -1.252  2.138  -0.047
   10
step  108
N  1.408  -0.008  0.001
N  -1.409  0.013  -0.039
C  0.721  -1.138  -0.001
C  -0.701  -1.144  -0.017
C  0.699  1.124  0.016
C  -0.711  1.145  0.045
H  1.210  -2.102  -0.034
H  -1.248  -2.079  0.062
H  1.194  2.131  0.022
H  -1.249  2.151  -0.037
   10
step  109
N  1.412  -0.006  -0.005
N  -1.414  0.009  -0.032
C  0.721  -1.140  0.001
C  -0.695  -1.145  -0.013
C  0.695  1.129  0.016
C  -0.711  1.143  0.038
H  1.205  -2.102  -0.020
H  -1.246  -2.078  0.047
H  1.190  2.127  0.016
H  -1.242  2.155  -0.025
   10
step  110
N  1.417  -0.003  -0.011
N  -1.419  0.005  -0.024
C  0.719  -1.141  0.003
C  -0.689  -1.144  -0.009
C  0.691  1.135  0.015
C  -0.711  1.141  0.030
H  1.207  -2.108  -0.004
H  -1.248  -2.082  0.030
H  1.189  2.119  0.010
H  -1.233  2.149  -0.012
   10
step  111
N  1.421  0.000  -0.017
N  -1.424  -0.000  -0.016
C  0.716  -1.142  0.005
C  -0.684  -1.141  -0.004
C  0.687  1.140  0.015
C  -0.711  1.140  0.021
H  1.216  -2.119  0.011
H  -1.252  -2.089  0.013
H  1.193  2.110  0.004
H  -1.222  2.134  0.002
   10
step  112
N  1.425  0.003  -0.023
N  -1.427  -0.004  -0.008
C  0.712  -1.143  0.007
C  -0.680  -1.138  0.001
C  0.684  1.144  0.014
C  -0.711  1.140  0.012
H  1.228  -2.131  0.027
H  -1.256  -2.097  -0.004
H  1.201  2.102  -0.003
H  -1.211  2.116  0.016
   10
step  113
N  1.428  0.006  -0.029
N  -1.429  -0.008  -0.000
C  0.709  -1.144  0.010
C  -0.678  -1.134  0.005
C  0.682  1.147  0.013
C  -0.711  1.139  0.003
H  1.242  -2.139  0.042
H  -1.259  -2.102  -0.021
H  1.214  2.098  -0.009
H  -1.204  2.099  0.030
   10
step  114
N  1.430  0.008  -0.034
N  -1.431  -0.011  0.007
C  0.706  -1.146  0.012
C  -0.678  -1.130  0.010
C  0.681  1.148  0.011
C  -0.710  1.137  -0.005
H  1.253  -2.141  0.056
H  -1.258  -2.102  -0.037
H  1.230  2.096  -0.015
H  -1.203  2.088  0.043
   10