[Molden Format]
made by pyscf v[2.13.1]
[Atoms] (AU)
O   1   8     0.21099695469856     0.00000000000000     2.15462460678861
N   2   7    -0.44776862100326     0.00000000000000    -0.03589262653049
H   3   1     1.18163474748449     0.00000000000000    -1.17386889907833
[GTO]
1 0
 s    8 1.00
                 11720  0.00070964594651845
                  1759  0.0054672722921914
                 400.8   0.027823118610189
                 113.7    0.10474773971146
                 37.03    0.28292084635691
                 13.27    0.44849523869833
                 5.025    0.27081688521277
                 1.013    0.01545029160744
 s    8 1.00
                 11720  -0.00031444341168873
                  1759  -0.0024821376810179
                 400.8  -0.012316355381583
                 113.7  -0.050538917343672
                 37.03   -0.13938490331632
                 13.27   -0.32507749481778
                 5.025   -0.22984830758785
                 1.013     1.0953793467883
 s    1 1.00
                0.3023                   1
 s    1 1.00
               0.07896                   1
 p    3 1.00
                  17.7   0.062679166281506
                 3.854    0.33353656587936
                 1.046    0.74123964163973
 p    1 1.00
                0.2753                   1
 p    1 1.00
               0.06856                   1
 d    1 1.00
                 1.185                   1
 d    1 1.00
                 0.332                   1

2 0
 s    8 1.00
                  9046  0.00069961741342552
                  1357  0.0053860546299287
                 309.3   0.027391021189057
                 87.73    0.10315059198201
                 28.56    0.27857066331743
                 10.21    0.44829484945412
                 3.838    0.27808592839527
                0.7466   0.015431561233271
 s    8 1.00
                  9046  -0.00030499009595337
                  1357  -0.0024080263785077
                 309.3   -0.01194444872518
                 87.73  -0.048925992909017
                 28.56   -0.13447272472496
                 10.21   -0.31511257770011
                 3.838   -0.24285783254964
                0.7466     1.0943822068542
 s    1 1.00
                0.2248                   1
 s    1 1.00
               0.06124                   1
 p    3 1.00
                 13.55   0.058905676772132
                 2.917    0.32046110671427
                0.7973    0.75304206179207
 p    1 1.00
                0.2185                   1
 p    1 1.00
               0.05611                   1
 d    1 1.00
                 0.817                   1
 d    1 1.00
                  0.23                   1

3 0
 s    3 1.00
                 13.01   0.033498726389998
                 1.962    0.23480080117413
                0.4446     0.8136829578829
 s    1 1.00
                 0.122                   1
 s    1 1.00
               0.02974                   1
 p    1 1.00
                 0.727                   1
 p    1 1.00
                 0.141                   1

[5d]
[7f]
[9g]

[MO]
 Sym= A
 Ene=               0
 Spin= Alpha
 Occup=    1.00000
   1      -1.0021629391721
   2    -0.0033608028072982
   3     0.016532201847315
   4    0.0051234319010746
   5    0.00054603974672572
   6    -3.118594659161e-15
   7    0.0019018517682097
   8    -0.0021644142331794
   9     1.85119173293e-14
  10    -0.008076770666995
  11    -0.00030639862510865
  12    -1.2542660880281e-15
  13    -0.00080836762454586
  14    -0.00028939190780637
  15    -0.00012902146381625
  16    3.8804424968461e-15
  17    2.8842067021568e-05
  18    -1.8094000800324e-15
  19    0.0018311473836501
  20    0.00091124051625706
  21    -3.0132958848568e-15
  22    0.00011602867750305
  23    -3.1686565704962e-15
  24    4.5201274742029e-05
  25    0.00023009337741083
  26    -0.011561498123045
  27    -0.003494557046159
  28    -0.0002923035247767
  29    8.9671103563496e-15
  30    -0.00042587806308432
  31    -0.0024908693737451
  32    3.1306122618893e-15
  33    -0.008695491225808
  34    -0.00010808578631765
  35    1.4157020933676e-15
  36    -0.0010629374592285
  37    0.0002291160434385
  38    0.00023610341667285
  39    7.1235959303026e-16
  40    -4.4423465999199e-05
  41    -1.4409159615625e-15
  42       -0.002198786698
  43    -0.001561455550656
  44    -3.9966437392582e-15
  45    -0.00029301383234947
  46    1.1061363105401e-15
  47    0.00019579759072254
  48    -0.0015008332219511
  49    0.00016933815075347
  50    -0.00013567611035573
  51    1.9162480997124e-16
  52    0.00023494317126569
  53    0.00063428120318994
  54    2.6575441831377e-16
  55    -0.00012819094110673
 Sym= A
 Ene=               1
 Spin= Alpha
 Occup=    1.00000
   1    -0.00012750379578522
   2    -0.00059761821193094
   3    0.00058981862528542
   4    0.00055935848237211
   5    -0.00018056563560009
   6    -4.9013586110402e-14
   7    0.00015303627332759
   8    -0.00060107915163454
   9    -3.798500461265e-14
  10    -0.0014615728278236
  11    -2.9879259302768e-07
  12    3.3427175973565e-15
  13    -0.00011228382288895
  14    0.00024205590662153
  15    0.00013862715991942
  16    3.1477319945948e-15
  17    9.4711277091067e-06
  18    -1.2490557261159e-15
  19    0.00095767567144617
  20    0.00061388016300772
  21    9.5765761321274e-16
  22    0.00015082627575832
  23    -9.2704357885681e-16
  24       -1.001945009077
  25    -0.0031188407990186
  26    0.0071217418646761
  27     0.001961030917254
  28    -0.0016758652743602
  29    -8.5284714664223e-14
  30    -0.0015827815544123
  31     0.001907872541421
  32    2.810557630542e-14
  33    -0.00075342794447126
  34    0.0006383236539261
  35    -1.2370551105068e-15
  36    -0.00041024156191528
  37    -0.00048745516620392
  38    -0.00012508621340823
  39    -5.8904307195936e-16
  40    -0.00010788679622966
  41    -1.5166508152715e-14
  42    0.00055651124675608
  43    9.4825156426388e-05
  44    4.3962232944103e-15
  45    0.00025552746227757
  46    8.8600746713904e-15
  47    -0.00031948785805597
  48    -0.005540097276386
  49    -0.0005267204224185
  50    -0.00031885274245433
  51    2.1267161837598e-15
  52    0.00015933423769958
  53    0.0019259745466117
  54    -1.1459533079583e-14
  55    -0.0013993022089795
 Sym= A
 Ene=               2
 Spin= Alpha
 Occup=    1.00000
   1     0.010312437850104
   2     -0.37117653528471
   3     -0.42640912103952
   4       -0.031871580904
   5     0.036532533649856
   6    -5.3051716383765e-12
   7      0.15246460160812
   8     0.021847091217866
   9    -3.6060537351631e-12
  10      0.10608297362724
  11    -0.0011520917995807
  12    -1.0743795290656e-13
  13    -0.0032586486216314
  14    -0.017165749518049
  15    -0.0082740751396441
  16    2.8297480533095e-13
  17    -0.0010856394932132
  18    -1.3316653759002e-13
  19    -0.017936769801669
  20    -0.0058061423325727
  21    3.5780926342215e-13
  22    -0.0027848438835316
  23    2.0152658094527e-13
  24    0.0058587765124201
  25     -0.26053528545263
  26    -0.080994610399673
  27    0.0070444251732242
  28    -0.068709326475302
  29    -8.3282507599504e-13
  30      -0.1535464225396
  31    0.0074730721347807
  32    7.7978244917277e-13
  33     0.029697443316794
  34    -0.0029504308397842
  35    2.4759197855753e-13
  36    0.0094072578864288
  37    -0.025108349636746
  38    -0.016102126418519
  39    -3.6766692467945e-13
  40    -0.0034679145079784
  41    -2.6015277348461e-13
  42     0.014915170843291
  43    0.0051253444330761
  44    3.1537173124094e-13
  45    0.0068078590618602
  46    1.5412107746101e-13
  47    -0.072427995180599
  48     0.029462378406237
  49    0.0014619029614264
  50     0.011742068777583
  51    -7.2220163372933e-14
  52    -0.011970821605675
  53    -0.012191793748312
  54    1.8310164605141e-13
  55    0.0089248077580465
 Sym= A
 Ene=               3
 Spin= Alpha
 Occup=    1.00000
   1    0.0010804602546313
   2       0.2802202952882
   3      0.41518432272162
   4      0.06861620834099
   5     0.015576189368508
   6    1.1411227996206e-12
   7      0.17369492141279
   8    -0.0045299931249123
   9    1.322896189179e-12
  10     0.061215809191944
  11    0.0016968924126395
  12    -2.5536377639044e-13
  13    -0.0060866847485018
  14    -0.011701994090307
  15    -0.0014588065471829
  16    -4.2833551663465e-13
  17    0.00064238221702216
  18    -4.8750123308112e-14
  19    -0.0089774185953255
  20    0.0044840186071395
  21    -6.1250198411159e-13
  22    -0.0020605975854435
  23    -1.1651811661571e-13
  24    0.0020498469975227
  25     -0.32600991977983
  26     -0.35722261109624
  27    -0.046541203573805
  28     -0.10495571662322
  29    9.5805711045867e-12
  30      0.14345810410057
  31    -0.024654724385624
  32    7.6306399299215e-12
  33    0.0041429483273907
  34      -0.0063440633076
  35    1.4470006574324e-12
  36    -0.0066409705252041
  37    0.0087493940446553
  38     0.010215294307889
  39    4.5278991499393e-13
  40    -0.0073991853655341
  41    2.3911354893273e-13
  42    -0.018504236097945
  43    -0.017452618163521
  44      1.5729048001e-13
  45     0.013445037624475
  46    -1.0677525320717e-13
  47     -0.27206421968889
  48    -0.032319977712614
  49    0.0016101912662788
  50     0.029561063271263
  51    3.5675708300286e-13
  52     -0.01899678016159
  53    -0.0036654515360473
  54    9.9041774298122e-14
  55    0.0011881274024501
 Sym= A
 Ene=               4
 Spin= Alpha
 Occup=    1.00000
   1    0.0014907107976999
   2      0.13372483625076
   3      0.20904284694876
   4     0.053799648617902
   5      0.15924333839683
   6    -2.0378028947846e-11
   7      0.43500935702382
   8      0.09890495448808
   9    -1.4215727429442e-11
  10      0.25533252683402
  11    -0.0064480208990801
  12    -6.8013361263495e-13
  13    0.0076808829611869
  14    -0.017188211346024
  15     -0.01505137432054
  16    1.2320687039786e-12
  17    -0.0027093846632834
  18    4.1580734386575e-13
  19     -0.01320203515638
  20    -0.017647980713028
  21    1.6793961890249e-12
  22    -0.0020231473362356
  23    5.7862619130475e-13
  24    -0.0042213285847156
  25    6.8900082328665e-05
  26     0.077525375475743
  27    -0.0041360553440437
  28     0.049961632295891
  29    -1.8473149634538e-11
  30     -0.38768020281619
  31    0.0049626452675759
  32    -1.0942370772246e-11
  33     -0.12787149028111
  34    0.0017328177845084
  35    -1.0235360889141e-12
  36    -0.0073502994875762
  37    -0.028213893293418
  38    -0.022746436861272
  39    -1.671843277727e-12
  40    0.0045918438463882
  41    -7.8082757745464e-13
  42     0.010072172839806
  43    -0.0016766783395424
  44    4.8098316182233e-13
  45    -0.009821842806229
  46    -2.5196545477519e-13
  47      0.23838165691398
  48     0.077666614054947
  49    0.0028664693042756
  50    -0.021181575504499
  51    -5.6492811803373e-13
  52     0.009659661484848
  53    -0.0040054957491108
  54    1.2678803506911e-13
  55     0.012317800512536
 Sym= A
 Ene=               5
 Spin= Alpha
 Occup=    1.00000
   1    0.00036321408026243
   2    0.0084018951868016
   3     0.021586016426721
   4     0.028926230440466
   5     -0.59434849780113
   6    1.6139261318034e-11
   7      0.13459974846898
   8     -0.44076857087941
   9    -6.5710574121866e-12
  10     0.089525976309805
  11    -0.083243059884815
  12    2.9658618611645e-11
  13    0.0083960910015917
  14    -0.00095751613003954
  15     0.005802312300804
  16    -1.5625785158756e-13
  17    0.0019505496512184
  18    4.0614802867538e-15
  19    -0.0051197991903434
  20     0.018748653720996
  21    2.709902353191e-13
  22    0.0059136072957125
  23    7.7641406222113e-15
  24    -0.0038675556051467
  25    -0.097107836801393
  26     -0.21498611922015
  27     -0.11970360494011
  28      0.28082723125519
  29    -4.9303037169115e-12
  30     0.033855018447211
  31      0.21777152594035
  32    2.4141270525878e-11
  33    0.00079119226466856
  34     0.042303405443305
  35    7.3421426786457e-12
  36    0.0042925445394543
  37     0.015382347291829
  38    -0.027589132149531
  39    2.8324915776108e-12
  40     0.000539166983208
  41    4.1230464901445e-12
  42    -0.010480036025253
  43    0.0035689247869006
  44    1.5724579190136e-11
  45    0.0060593656338035
  46    7.8686906526257e-12
  47      0.21991914887548
  48      0.13506519808517
  49     0.023574807052558
  50    -0.0068786142051688
  51    1.3393892721767e-12
  52     0.011192320616671
  53    0.0052495989081719
  54    1.0169000811452e-11
  55    -0.018145647242389
 Sym= A
 Ene=               6
 Spin= Alpha
 Occup=    1.00000
   1    4.350097369574e-05
   2     0.021275543161912
   3     0.035293356344938
   4     0.016345437695328
   5      0.24087913751623
   6    -7.3177466345297e-11
   7     -0.18006034776755
   8      0.15383495383438
   9    -7.3683386202807e-11
  10     -0.13328433594111
  11     -0.00164508864239
  12    -1.4201942076312e-11
  13    -0.0092319923512631
  14     0.012210124524575
  15    -0.015048593270934
  16    5.114037762169e-12
  17    -0.0048517107982821
  18    1.6155215742543e-12
  19     0.017584535156919
  20    -0.020286528231337
  21    9.5941338477192e-12
  22    -0.0027786894218688
  23    2.1404056448701e-12
  24    -0.0063824132362885
  25     -0.19414307365915
  26     -0.31589817298551
  27    -0.059830275908362
  28      0.47084935657759
  29    -5.2675680002569e-11
  30     0.078565275336624
  31      0.23030717687611
  32    -4.4646144605389e-11
  33      0.03511934804294
  34     0.023482878724906
  35    -3.965403233799e-13
  36    -0.0037800527826925
  37      -0.0038277538754
  38     0.020890495680164
  39    -8.3712112034894e-12
  40     0.011825098551889
  41    -5.4375312891919e-12
  42    0.00073370261257946
  43    -0.0023158751975125
  44    -1.9243245725337e-12
  45    0.00019296670592926
  46    -2.8966063999562e-12
  47      0.15581261096114
  48     0.038211486417475
  49    0.0025633557861703
  50    -0.0042824318717279
  51    -2.5875607844379e-12
  52     0.016821571198096
  53     0.011797255105348
  54    -1.993949142122e-12
  55    0.00081573580109819
 Sym= A
 Ene=               7
 Spin= Alpha
 Occup=    1.00000
   1    8.0260003167286e-14
   2    -3.6254023984583e-12
   3    -1.2689699488237e-11
   4    -1.0381181206277e-11
   5    -7.1838551145822e-11
   6     -0.48954263000289
   7    1.9862012143345e-11
   8    -7.3358853746944e-11
   9     -0.31698215711816
  10    2.7514209244752e-11
  11    1.4382635285129e-11
  12    -0.012800578025061
  13    -9.6768831811491e-13
  14    -2.076986582274e-12
  15    4.5126305852377e-12
  16     0.022638846124764
  17    1.5260436714078e-12
  18    0.0063570452377833
  19    -4.5055226679792e-12
  20    8.2992995345454e-12
  21     0.028695674031598
  22    1.8927532341969e-12
  23    0.0069171690420297
  24    2.8864293142252e-13
  25    2.7012135742761e-11
  26    4.3592134893335e-11
  27    1.2806429759274e-11
  28    -7.0230407435677e-11
  29     -0.38526556928204
  30    8.0330509677128e-12
  31    -2.8686965578588e-11
  32     -0.20966114391685
  33    1.3409026754295e-12
  34    -1.0441644879281e-11
  35    -0.020445602893168
  36    4.3062538848859e-12
  37    4.4032475248731e-12
  38    -5.9494005096748e-12
  39    -0.028910012828279
  40    -3.5785618202388e-12
  41    -0.014080918999637
  42    -3.5228048543947e-12
  43    6.4825209868745e-12
  44     0.016223247532239
  45    1.9210209825507e-12
  46     -0.00371394819299
  47    -3.6014747374185e-11
  48    -2.8460815544767e-12
  49    -3.9178135046481e-13
  50    8.0933820849516e-13
  51    -0.013484786201781
  52    -2.8897402978324e-12
  53    -7.5300056474766e-12
  54    -0.0011970366806248
  55    3.4237470801007e-12
 Sym= A
 Ene=               8
 Spin= Alpha
 Occup=    0.00000
   1    3.9993436397095e-13
   2    8.4458463665365e-13
   3    2.1553118420343e-12
   4    -4.8266506927567e-12
   5    1.0354044717236e-11
   6      -0.4863713435124
   7    -5.4801113155078e-12
   8    -2.6024968266073e-11
   9     -0.38795504201252
  10    8.3403930659507e-12
  11    -1.0465872424695e-13
  12     -0.10276720639836
  13    2.5665127551804e-12
  14    -4.081610026986e-13
  15    7.0192288059004e-13
  16    -0.0071006868630407
  17    3.9585051861301e-13
  18    -0.0019941449169887
  19    -9.846009909441e-13
  20    1.6842505048977e-12
  21    0.0041623484715266
  22    6.6330768012804e-13
  23    -0.0025409682032116
  24    -7.3379830704061e-13
  25    5.1438862718248e-12
  26    1.4620130762132e-11
  27    7.9148445358059e-12
  28    1.6557276870488e-11
  29      0.52550039376062
  30    -8.9239374067535e-12
  31    5.2098603118687e-12
  32      0.44940055645094
  33    -1.1232086866472e-11
  34    3.4143995726329e-13
  35      0.11323547277675
  36    -1.6349486347086e-12
  37    -9.7391885207754e-14
  38    1.4866884992306e-12
  39    -0.014083729882842
  40    -3.440138472712e-12
  41    0.0052775407225201
  42    -4.2008610952769e-12
  43    7.7038809888638e-12
  44    -0.001812437741098
  45    -1.379038990445e-12
  46     0.012082267598795
  47    -6.9875757229888e-12
  48    -1.3534647355979e-11
  49    -2.9135336595336e-12
  50    -1.1755399394707e-12
  51     0.022749956011412
  52    6.1417228894478e-13
  53    -1.0516510959139e-12
  54     0.020811204337111
  55    1.759145129676e-12
 Sym= A
 Ene=               9
 Spin= Alpha
 Occup=    0.00000
   1    -0.016082522566495
   2    -0.087143857643808
   3     -0.17104170622253
   4     -0.14142679206536
   5    -0.087195609888648
   6    4.7999285588653e-10
   7      0.17834075183742
   8      0.26047312285474
   9    -3.5140863659933e-10
  10     0.064179411003903
  11       0.1787480038435
  12    -1.5382015507129e-10
  13    -0.0055339138146248
  14    -0.0037575104088713
  15     0.017071681524045
  16    3.2773988084205e-11
  17    -0.0028477742069525
  18    1.4093931785228e-11
  19    -0.0079960744639528
  20    0.0068581804840669
  21    1.0002021811748e-10
  22    0.0024722936816177
  23    2.6653676445356e-11
  24     -0.15857983225706
  25     -0.31438487201149
  26      0.62600167189638
  27      0.43660849675644
  28      0.83641540249559
  29    3.5898512333379e-10
  30     0.071931708640832
  31     -0.46348448142893
  32    -1.6340759015505e-10
  33    0.0099741332692873
  34     -0.16385561263905
  35    -5.5253360340712e-12
  36     0.022716527725194
  37     0.078839688656716
  38    -0.028607487299478
  39    -9.6762747160561e-11
  40      -0.1992839452223
  41    -6.3640044830143e-11
  42     0.022288488438844
  43    0.0035164474399888
  44    -8.6759239044656e-11
  45     -0.09508178303562
  46    -2.8387649349747e-11
  47     -0.32275470119519
  48     -0.23407811918344
  49    -0.056077578728185
  50    -0.030191649905448
  51    -2.5908315957286e-12
  52    0.0046042258904281
  53     -0.10737274236792
  54    -2.2970652773752e-11
  55     0.030948825033274
 Sym= A
 Ene=              10
 Spin= Alpha
 Occup=    0.00000
   1    0.0005131666095001
   2    -0.0016919490839613
   3     0.032218752942904
   4     0.049731655077344
   5      0.79989204960534
   6    -1.8415039225284e-09
   7     -0.24897747750707
   8      -0.6834248077115
   9    1.6870351911183e-09
  10      0.20470056745081
  11     -0.29342628170165
  12    6.3697349258731e-10
  13     0.055501068792613
  14    -0.020929239441631
  15     0.029093692129035
  16    -1.2221992657884e-10
  17     0.016208536349635
  18    -4.0356036794568e-11
  19    -0.063579645911718
  20      0.11535690334044
  21    -3.9334408417661e-10
  22     0.032962111885324
  23    -9.1766248757561e-11
  24    -0.043453714363393
  25     -0.15120162078386
  26     -0.02587255318604
  27    -0.084230249221158
  28      0.17332256220469
  29    -1.1326462663471e-09
  30     0.077531227544618
  31    -0.039013673693813
  32    2.2647519851851e-10
  33    -0.022652621906019
  34      0.09027779052704
  35    -1.2950825157602e-10
  36    -0.0013142437811758
  37     0.067452938870854
  38     -0.11711698799244
  39    2.4792439434198e-10
  40    -0.052037004613652
  41    2.9270117560948e-10
  42     0.012121169877722
  43    -0.092234637239946
  44    1.957069016794e-10
  45    -0.020639083482749
  46    1.3612635525965e-10
  47      0.17697933119708
  48      0.12224059418345
  49      0.03564621511391
  50    -0.0045571245647118
  51    2.5026540051288e-11
  52    -0.015144103539362
  53    -0.0063363122533073
  54    8.5944122568102e-11
  55    -0.080667634139103
 Sym= A
 Ene=              11
 Spin= Alpha
 Occup=    0.00000
   1    -0.0033330773193884
   2    -0.022928601747156
   3    -0.0023434531680376
   4      0.55025306219529
   5     -0.02188829840486
   6    4.6408903535013e-11
   7    -0.024745364252285
   8    -0.027922898651011
   9    1.8618951258722e-11
  10    -0.049562187957441
  11     0.060271052289795
  12    -1.5279276025116e-10
  13     -0.29903992764124
  14    -0.0018324761694714
  15    0.00023175056720228
  16    -1.3897220867621e-12
  17    0.00091226800309101
  18    -5.989061524692e-13
  19    0.0060028403662336
  20    0.0076671707838399
  21     5.01578845866e-12
  22    -0.0013129391322124
  23    7.0828661922891e-13
  24    0.0042738102285965
  25    -0.039512151972689
  26     -0.31082218394966
  27      -2.2635713621039
  28    -0.020671918478689
  29    4.9687085461168e-11
  30     0.051488861421666
  31     -0.14443796618205
  32    3.4637026848177e-11
  33     0.055126158188654
  34     -0.53414250611499
  35    -7.8817875819305e-11
  36      0.12240495575831
  37     0.001919674652126
  38    0.0022837964431164
  39    -5.5457640505449e-13
  40    -0.0019733460795593
  41    -3.5850696372667e-13
  42    -0.031181615796989
  43     0.027733297712333
  44    -1.6423864913694e-11
  45    -0.022248180494481
  46    -1.5622688945217e-11
  47    -0.0071616439219727
  48      0.64403173203721
  49       2.1087767973538
  50    0.0032595187274122
  51    -8.8438252393869e-13
  52    -1.0162797472704e-06
  53     -0.18531745134198
  54    5.5368132151193e-12
  55     0.098972782007321
 Sym= A
 Ene=              12
 Spin= Alpha
 Occup=    0.00000
   1    -0.010386025479789
   2     0.055398122336421
   3      0.54799899792621
   4       5.4144875037943
   5    -0.0011036346389881
   6    2.5680463920677e-11
   7     0.020285507577641
   8    -0.092918719587548
   9    1.5783154335625e-11
  10     -0.44402033682964
  11     -0.48868839938091
  12    -7.188622157709e-11
  13      -1.4752987078823
  14    -0.0045040490546848
  15    -0.0019582262665142
  16    -1.916830865672e-12
  17    -0.00097937762624949
  18    -4.1811478164018e-14
  19      0.10833403118953
  20     0.047899578372649
  21    4.6765539513449e-12
  22    0.0091229226019374
  23    1.0787508812651e-12
  24     0.016254292159433
  25    0.0081431381348125
  26     -0.65272865326747
  27      -5.1823280379956
  28    -0.010929427968822
  29    3.1971599548763e-11
  30    -0.031777978566076
  31     -0.13593211026868
  32    4.6126375203272e-11
  33     -0.69679884461785
  34     -0.63768889172032
  35    -1.46558038607e-10
  36      -2.3586698713811
  37    -0.0012185236066464
  38    0.0013951402413923
  39    9.1483443204338e-13
  40    -0.00046926681631246
  41    1.7761547782919e-12
  42      -0.1410941652758
  43     -0.12436629693207
  44    -3.7166628875132e-13
  45    -0.024673636829926
  46    -1.3127364522057e-11
  47    -0.024684888623438
  48     -0.37415263750597
  49      0.33641162323434
  50    -0.0040338438999249
  51    -1.1885286683927e-12
  52    0.0016655905168322
  53       0.1736556514863
  54    1.6317232456191e-11
  55     -0.07798593286239
 Sym= A
 Ene=              13
 Spin= Alpha
 Occup=    0.00000
   1    1.4997789476706e-11
   2    2.7445250606199e-11
   3    -2.8843042517088e-10
   4    -1.8211597078686e-09
   5    2.8187625487428e-10
   6     0.035833821305213
   7    -1.3650988873714e-10
   8    3.4312754972419e-10
   9     0.025388147986149
  10    1.3667280574953e-10
  11    -1.4899116038168e-09
  12       0.2483558002578
  13    1.1197474774879e-09
  14    3.575740104739e-12
  15    -9.3763518861486e-12
  16    -0.0094498324085019
  17    6.9692823743425e-13
  18    -0.0030835796565612
  19    -8.3900607907709e-11
  20    1.0628960057841e-11
  21    0.0074113129922504
  22    1.5452235799443e-11
  23     0.012238641731754
  24    -8.0296895834287e-12
  25    -1.0202488800821e-10
  26    1.4077342301948e-10
  27    2.0191607403965e-09
  28    -1.1826008953208e-10
  29      0.15067496297428
  30    8.865760806846e-11
  31    5.1142417184223e-11
  32      0.29569022585506
  33    4.7317271233634e-10
  34    5.9384591392502e-10
  35      -1.4584153654263
  36    3.0391747904671e-10
  37    1.0128193225893e-11
  38    -9.5256145370751e-12
  39    0.0076647352743601
  40    1.823308234781e-11
  41      0.02084663050694
  42     1.33876251318e-10
  43    4.454625199233e-11
  44     0.037634851507212
  45    -2.2453200243518e-12
  46    -0.074914080378416
  47    1.6713084402987e-10
  48    8.7880953097745e-10
  49    -6.5507942766304e-10
  50    1.0753420755336e-12
  51    -0.0091621180198074
  52    -2.4471390358438e-11
  53    2.8138852000266e-10
  54      0.24533314372647
  55    -1.073337403698e-10
 Sym= A
 Ene=              14
 Spin= Alpha
 Occup=    0.00000
   1    -0.0011873438422291
   2    -0.019956138998728
   3    -0.020103240508936
   4        -2.26352944408
   5    -0.015109832927895
   6    -1.8485333100939e-11
   7    -0.032433621653141
   8     0.016299715288599
   9    -1.8923042150296e-11
  10    -0.0026081165103513
  11     -0.20185343641954
  12    1.5510472504427e-10
  13      0.66802782487376
  14    -0.0056272976029003
  15    0.0049699117833706
  16    9.5137823716389e-13
  17    -0.0013520878762331
  18    1.5644338522911e-13
  19    -0.026413803018482
  20    -0.0053253836908782
  21    -4.9105634028423e-12
  22    -0.007651823899623
  23    5.3510067709234e-13
  24    -0.041054316175269
  25     -0.16105985116045
  26      0.46404375313267
  27       6.9819865352382
  28    -0.054981874409145
  29    7.532369482961e-12
  30      0.09851108426865
  31      0.37907620209884
  32    -7.3252880226733e-12
  33     -0.11305469118552
  34       2.2896299690203
  35    -1.28110081114e-10
  36     -0.54368194133289
  37    0.0034796740841514
  38     0.002460339678262
  39    -1.2261642460447e-12
  40    -0.014701806151289
  41    1.2032271677014e-12
  42    0.0093205220910552
  43     -0.12880473755107
  44    -3.4510108615111e-12
  45     0.074655340755572
  46    2.8170600638537e-12
  47    -0.076414793442092
  48      -3.0526073730265
  49      -2.4909366867656
  50      0.04023042385699
  51    3.0801481474045e-13
  52     -0.03295656278277
  53      0.57706414822729
  54    2.3349830478582e-11
  55     -0.43058331118687
 Sym= A
 Ene=              15
 Spin= Alpha
 Occup=    0.00000
   1     0.016418118381577
   2     0.023598704408587
   3     -0.28806532366376
   4     -0.63876461931947
   5    -0.049127895830707
   6    1.4398202494614e-10
   7    -0.059369286541495
   8     0.076976223194957
   9    2.0457126036138e-10
  10     0.087928480672095
  11       1.1300110789651
  12    -1.8002045885727e-09
  13      0.96406064834521
  14    0.0035715213580989
  15    0.0070813788752809
  16    -9.5981680972529e-12
  17    0.0055543039480105
  18    -2.5107104055127e-12
  19    -0.046473198882404
  20    -0.084076944849524
  21    5.4434628728625e-11
  22    -0.0068569047577839
  23    4.0552019143594e-12
  24    0.0006153250797485
  25    -0.078010091893899
  26      0.14492593136035
  27        1.230324784709
  28     -0.09943043711973
  29    -4.3159629797025e-11
  30     0.088876379636809
  31    -0.030207494936208
  32    -5.5377107839238e-11
  33      0.40805354375016
  34      -1.7153367315297
  35    1.7468271817868e-09
  36     -0.35014921659646
  37    0.0027071276424507
  38     0.013019468444881
  39    -3.6848216000011e-12
  40     0.029131798653177
  41    -1.4775941383231e-11
  42      0.16681255922208
  43    -0.021293026083748
  44    3.5495797866707e-11
  45    -0.064478392229787
  46    4.3837608916377e-11
  47      0.10763559887893
  48       1.1315918982656
  49     -0.70619718721832
  50     0.002871119476783
  51    3.1317759579976e-12
  52    0.0046438127983517
  53       0.5045437766695
  54    -1.922299437876e-10
  55      0.13660541266221
 Sym= A
 Ene=              16
 Spin= Alpha
 Occup=    0.00000
   1    0.0064742886052954
   2     0.026566128081647
   3     -0.18944030418985
   4      0.26706188114851
   5    0.0077951198540342
   6    1.3156465357213e-11
   7     0.045788991236503
   8    -0.0036605508763817
   9    2.212958183916e-11
  10      0.17654309156722
  11      0.23552363278214
  12    -1.9374535315697e-10
  13      -1.8211720340838
  14    -0.019298449598923
  15    -0.0053711783138396
  16    -1.0287283487604e-12
  17    -0.0014050741182663
  18    -2.8151384254032e-13
  19     0.038050621087503
  20     0.017578947590332
  21    4.7657876273336e-12
  22     0.021284642286379
  23    8.0642541340159e-13
  24    -0.013123576724645
  25    -0.088149950713133
  26    -0.063112820959676
  27     -0.72075091497727
  28    -0.049572732592288
  29    -3.3778819421763e-12
  30    -0.007365848534602
  31      0.16928860109557
  32    -1.1105564098526e-11
  33     0.031799877468611
  34     -0.81277783444981
  35    1.8542791365804e-10
  36       1.2604256358754
  37    -0.016249917878518
  38    -0.015347948000962
  39    -5.4451236247734e-13
  40    0.0095365843045154
  41    -1.7492720757339e-12
  42     0.098591278409363
  43     0.098167672050513
  44    2.6673686867774e-12
  45    -0.00094381917460838
  46    8.0072547310411e-12
  47     0.062855966077443
  48    -0.055060718078933
  49      0.28904824362191
  50     0.013203101160259
  51    8.9071754946177e-14
  52    0.0034551803210528
  53       0.3411478560942
  54    -7.5618431207615e-12