[Molden Format]
made by pyscf v[2.13.1]
[Atoms] (AU)
C   1   6     0.00000000000000     1.26026583578789     0.00000000000000
C   2   6     0.00000000000000    -1.26026583578789     0.00000000000000
H   3   1     0.00000000000000     2.32345974964118     1.74287671684983
H   4   1     0.00000000000000    -2.32345974964118     1.74287671684983
H   5   1     0.00000000000000     2.32345974964118    -1.74287671684983
H   6   1     0.00000000000000    -2.32345974964118    -1.74287671684983
[GTO]
1 0
 s    8 1.00
                  6665  0.00069158396281299
                  1000  0.0053257961529341
                   228   0.027060721042034
                 64.71    0.10165684614077
                 21.06     0.2745748236174
                 7.495    0.44829431892377
                 2.797    0.28490261071525
                0.5215   0.015194859206082
 s    8 1.00
                  6665  -0.00029326965268655
                  1000  -0.0023180354739745
                   228  -0.011499786038565
                 64.71  -0.046826727009787
                 21.06   -0.12846616875047
                 7.495   -0.30126627246289
                 2.797   -0.25563070233011
                0.5215      1.093793361012
 s    1 1.00
                0.1596                   1
 s    1 1.00
                0.0469                   1
 p    3 1.00
                 9.439   0.056979251590039
                 2.002    0.31320721150073
                0.5456    0.76037674173753
 p    1 1.00
                0.1517                   1
 p    1 1.00
               0.04041                   1
 d    1 1.00
                  0.55                   1
 d    1 1.00
                 0.151                   1

2 0
 s    8 1.00
                  6665  0.00069158396281299
                  1000  0.0053257961529341
                   228   0.027060721042034
                 64.71    0.10165684614077
                 21.06     0.2745748236174
                 7.495    0.44829431892377
                 2.797    0.28490261071525
                0.5215   0.015194859206082
 s    8 1.00
                  6665  -0.00029326965268655
                  1000  -0.0023180354739745
                   228  -0.011499786038565
                 64.71  -0.046826727009787
                 21.06   -0.12846616875047
                 7.495   -0.30126627246289
                 2.797   -0.25563070233011
                0.5215      1.093793361012
 s    1 1.00
                0.1596                   1
 s    1 1.00
                0.0469                   1
 p    3 1.00
                 9.439   0.056979251590039
                 2.002    0.31320721150073
                0.5456    0.76037674173753
 p    1 1.00
                0.1517                   1
 p    1 1.00
               0.04041                   1
 d    1 1.00
                  0.55                   1
 d    1 1.00
                 0.151                   1

3 0
 s    3 1.00
                 13.01   0.033498726389998
                 1.962    0.23480080117413
                0.4446     0.8136829578829
 s    1 1.00
                 0.122                   1
 s    1 1.00
               0.02974                   1
 p    1 1.00
                 0.727                   1
 p    1 1.00
                 0.141                   1

4 0
 s    3 1.00
                 13.01   0.033498726389998
                 1.962    0.23480080117413
                0.4446     0.8136829578829
 s    1 1.00
                 0.122                   1
 s    1 1.00
               0.02974                   1
 p    1 1.00
                 0.727                   1
 p    1 1.00
                 0.141                   1

5 0
 s    3 1.00
                 13.01   0.033498726389998
                 1.962    0.23480080117413
                0.4446     0.8136829578829
 s    1 1.00
                 0.122                   1
 s    1 1.00
               0.02974                   1
 p    1 1.00
                 0.727                   1
 p    1 1.00
                 0.141                   1

6 0
 s    3 1.00
                 13.01   0.033498726389998
                 1.962    0.23480080117413
                0.4446     0.8136829578829
 s    1 1.00
                 0.122                   1
 s    1 1.00
               0.02974                   1
 p    1 1.00
                 0.727                   1
 p    1 1.00
                 0.141                   1

[5d]
[7f]
[9g]

[MO]
 Sym= A
 Ene=               0
 Spin= Alpha
 Occup=    1.00000
   1    4.2371472797532e-14
   2    6.9934089147948e-14
   3    -1.8550719746298e-12
   4    -1.1640590206708e-11
   5    1.4510661202106e-15
   6    -4.0476913883721e-15
   7     -0.31136300667909
   8    3.1489447496788e-15
   9    2.0542597116374e-12
  10     0.071358262198258
  11    8.8747745208112e-16
  12    4.0613704759964e-12
  13      0.15219931716164
  14    2.5262695205931e-14
  15    2.4427171308856e-16
  16    -0.038686817801462
  17    1.420229863641e-14
  18    -6.7810998400778e-17
  19    -1.8018479296851e-14
  20    -1.3308505479629e-15
  21      0.11482988357878
  22    3.6094426650742e-13
  23    3.9634892575402e-16
  24    -3.0695396617315e-14
  25    -5.0744791965179e-14
  26    1.4670838052499e-12
  27    1.1290808860814e-11
  28    2.0886337948175e-15
  29    3.3888637006988e-15
  30      0.31136300667901
  31    4.785909237934e-16
  32    2.128253309452e-12
  33     -0.07135826219977
  34    -9.3705593203951e-16
  35    4.0313960012042e-12
  36     -0.15219931716224
  37    -2.0617889824743e-14
  38    -2.5354788135065e-16
  39    -0.038686817801446
  40    -1.644241954132e-14
  41    1.795827152302e-16
  42    -8.1083494896524e-14
  43    1.2419015643916e-15
  44      0.11482988357902
  45    -3.7115159158726e-13
  46    -1.5838767694869e-16
  47     -0.27140162168158
  48     -0.50733390661355
  49     -0.11358277922454
  50    -9.0147512433084e-17
  51    0.0075996953540318
  52    0.0015384628441527
  53    -4.8229557932162e-17
  54      0.04419469814917
  55     0.094974420470462
  56      0.27140162168157
  57      0.50733390661603
  58      0.11358277922525
  59    1.6423710860256e-16
  60     0.007599695354037
  61    -0.0015384628441606
  62    -2.3958093795476e-16
  63     0.044194698149614
  64    -0.094974420471114
  65      0.27140162168157
  66      0.50733390661312
  67      0.11358277922176
  68    6.2132810260231e-17
  69    -0.007599695354052
  70    0.0015384628441587
  71    -1.8945165111478e-15
  72    -0.044194698149148
  73     0.094974420469899
  74     -0.27140162168156
  75     -0.50733390661495
  76     -0.11358277922232
  77    -3.5197914528715e-17
  78    -0.0075996953540554
  79    -0.0015384628441628
  80    1.3512812905819e-15
  81    -0.044194698149402
  82    -0.094974420470495
 Sym= A
 Ene=               1
 Spin= Alpha
 Occup=    1.00000
   1    5.5220036742737e-14
   2    6.1894387054421e-14
   3    -2.7859798735447e-12
   4    9.8147463896319e-13
   5    -7.5892985030307e-14
   6    6.9722011732978e-16
   7      0.33262953584125
   8    -4.1461889193896e-14
   9    2.9177471695045e-12
  10    -0.047284447962711
  11    -6.7652775653797e-15
  12    1.8497620102362e-14
  13     -0.02436929150575
  14    5.5696128492454e-16
  15    2.1071872576477e-16
  16    -0.0013133468060517
  17    3.5976963066002e-14
  18    4.0150357493757e-15
  19    5.4140467562145e-13
  20    -9.1045859831394e-16
  21    -0.069228752016499
  22    4.387996465197e-13
  23    -1.7135470154371e-15
  24    -2.6265865699172e-14
  25    -5.8581906173653e-14
  26    2.1109277054207e-12
  27    -1.2790390714022e-12
  28    -7.5665564812711e-14
  29    -1.0565435722943e-14
  30       0.3326295358414
  31    -4.6186350294538e-14
  32    3.1033507659234e-12
  33    -0.047284447963105
  34    -5.0189056943204e-15
  35    4.2273989685632e-14
  36    -0.024369291507038
  37    -7.9028203011129e-16
  38    -5.1447474346319e-17
  39    0.0013133468060177
  40    -3.434692888354e-14
  41    -3.9691278405913e-15
  42    -6.3171143165725e-13
  43    9.1603494692266e-16
  44     0.069228752017347
  45    -4.6600699470234e-13
  46    -2.7369131281242e-15
  47      0.21913623682176
  48      0.25661654531425
  49     0.025747434249896
  50    -2.510783276773e-15
  51    -0.0076657752076224
  52    -0.0048825581688408
  53    -7.840188283445e-16
  54    -0.011490633299342
  55     -0.04946951657927
  56      0.21913623682194
  57      0.25661654531922
  58     0.025747434251103
  59    -2.7736835441787e-15
  60    0.0076657752075892
  61    -0.0048825581688178
  62    -3.8133389960489e-15
  63     0.011490633300023
  64    -0.049469516580303
  65      -0.2191362368218
  66     -0.25661654531678
  67     -0.02574743425015
  68    -2.868660774255e-15
  69    0.0076657752075983
  70    -0.0048825581688184
  71    -2.2506840573159e-15
  72     0.011490633299788
  73    -0.049469516579694
  74     -0.21913623682189
  75     -0.25661654531589
  76     -0.02574743425073
  77    -2.5510541768524e-15
  78    -0.0076657752076146
  79    -0.0048825581688388
  80    -1.7001697486925e-15
  81    -0.011490633299399
  82    -0.049469516579705
 Sym= A
 Ene=               2
 Spin= Alpha
 Occup=    1.00000
   1    -0.0089971517814118
   2      0.24649896091647
   3      0.42469786711382
   4     -0.39297138188001
   5    -2.1200127155776e-13
   6      0.16862623516632
   7    2.4483288562647e-15
   8    -1.2180284968601e-13
   9     -0.28830034137887
  10    1.8499552175476e-13
  11    -1.5170324750606e-14
  12      0.08404008894425
  13    -7.8276275146419e-14
  14    0.0098325439568469
  15    1.579868191086e-17
  16    7.6014486227331e-15
  17    0.0067626483977733
  18    1.1008938090521e-14
  19     -0.12128665541482
  20    -1.4596371447376e-15
  21    -2.1411076380532e-13
  22    -0.049583154091117
  23    6.1448744054313e-15
  24    0.0089971517813918
  25     -0.24649896091652
  26      -0.4246978671131
  27      0.39297138187994
  28    -2.1264653382105e-13
  29      0.16862623516739
  30    9.5253814770377e-16
  31    -1.188932812508e-13
  32     -0.28830034137868
  33    -1.2637716203815e-13
  34    -1.7675970032188e-14
  35     0.084040088944387
  36    -6.4766866388436e-14
  37    -0.0098325439568941
  38    -4.9186998392742e-17
  39    1.4889120126873e-15
  40    -0.0067626483977878
  41    -1.1105574892701e-14
  42      0.12128665541512
  43    1.5088708399922e-15
  44    -2.0930241109715e-13
  45     0.049583154091324
  46    -1.022138842758e-15
  47      0.20656871441764
  48      0.24068041691183
  49    -0.0092631763693825
  50    -7.5188281475741e-15
  51    -0.0063972159435446
  52    -0.016502298927955
  53    -8.4390270080915e-15
  54    -0.046638492080691
  55     -0.01791344134536
  56     -0.20656871441814
  57     -0.24068041691237
  58    0.0092631763696415
  59    -7.6138162189381e-15
  60    -0.0063972159435336
  61      0.01650229892798
  62    -7.7009369993927e-15
  63    -0.046638492080919
  64     0.017913441345384
  65      0.20656871441764
  66      0.24068041691148
  67    -0.0092631763695381
  68    -7.6339813198131e-15
  69    -0.0063972159435562
  70     0.016502298927959
  71    -9.9624672430686e-15
  72    -0.046638492080756
  73     0.017913441345265
  74     -0.20656871441812
  75     -0.24068041691195
  76    0.0092631763693515
  77    -7.6233830277439e-15
  78    -0.0063972159435411
  79    -0.016502298927982
  80    -5.6204947336675e-15
  81    -0.046638492080957
  82    -0.017913441345223
 Sym= A
 Ene=               3
 Spin= Alpha
 Occup=    1.00000
   1    0.0025651440938296
   2    -0.053215597262758
   3      0.17253682873725
   4     0.028713044545294
   5    -6.3878110234292e-13
   6     -0.37873805418874
   7    -4.837720660602e-15
   8    -3.6294494041158e-13
   9    -0.049514786409573
  10    2.659423390758e-13
  11    -4.7358668856738e-14
  12    -0.0072743455794724
  13    -3.7766226237115e-13
  14    -0.012609217554039
  15    -3.1788843414939e-16
  16    8.7254262706274e-15
  17    -0.0021299969440751
  18    3.3237989796739e-14
  19     0.070224306843254
  20    3.8827697643591e-16
  21    -9.7204412044115e-14
  22     0.046096096488539
  23    8.4042547383897e-15
  24    0.0025651440938332
  25    -0.053215597262073
  26      0.17253682873625
  27     0.028713044544118
  28    -6.3894029618724e-13
  29      0.37873805418834
  30    -2.6544447200239e-14
  31    -3.658275554154e-13
  32     0.049514786407044
  33    4.0794996844846e-13
  34    -5.2766076549562e-14
  35     0.007274345578726
  36    6.3070118715645e-13
  37    -0.012609217553997
  38    3.0179384725448e-16
  39    -2.0370724753938e-15
  40    -0.0021299969440201
  41    -3.3599355405019e-14
  42     0.070224306843455
  43    -2.8727581509013e-16
  44    -2.29955122323e-13
  45     0.046096096488867
  46    -9.6581138880827e-15
  47     -0.19937736424202
  48       -0.175870943196
  49    -0.0062917227487825
  50    -2.2449691278321e-14
  51    -0.0021442736413454
  52     0.012166683669284
  53    -2.2827763308886e-14
  54     0.039257784222477
  55     0.010568796293752
  56     -0.19937736424155
  57     -0.17587094319782
  58    -0.0062917227499604
  59    -2.3194295703998e-14
  60    0.0021442736413757
  61      0.01216668366924
  62    -2.1183972570928e-14
  63    -0.039257784222672
  64     0.010568796294253
  65     -0.19937736424201
  66     -0.17587094319577
  67    -0.0062917227493213
  68    -2.2952729333037e-14
  69    -0.0021442736413501
  70    -0.012166683669283
  71    -2.2094821088999e-14
  72     0.039257784222356
  73    -0.010568796293626
  74     -0.19937736424147
  75     -0.17587094319605
  76    -0.0062917227488799
  77    -2.2744074709224e-14
  78    0.0021442736413769
  79    -0.012166683669236
  80    -2.1652530213435e-14
  81    -0.039257784222494
  82    -0.010568796293809
 Sym= A
 Ene=               4
 Spin= Alpha
 Occup=    1.00000
   1     0.028330439168155
   2       0.3007830618614
   3      0.17485678727145
   4    0.0014967844942704
   5    -1.4282417654591e-12
   6     -0.21761665422988
   7    2.0171096420897e-14
   8    -8.1423834745101e-13
   9    -0.059439614940204
  10    1.0809021274171e-14
  11    -1.1197732197852e-13
  12    0.0022701427386332
  13    -1.3755733264372e-13
  14    -0.012210663650134
  15    -7.9932698244089e-17
  16    2.914778593477e-16
  17    -0.013449888148904
  18    7.4507248937935e-14
  19    -0.001880539801113
  20    -9.8804380734351e-17
  21    -4.6033747076394e-15
  22     0.001423879146999
  23    1.9855417530664e-14
  24     0.028330439168417
  25      0.30078306186152
  26      0.17485678727141
  27    0.0014967844959029
  28    -1.4281484837752e-12
  29      0.21761665422984
  30    1.7431965179223e-14
  31    -8.1482144223274e-13
  32     0.059439614939101
  33    2.8971982223809e-15
  34    -1.1203623158442e-13
  35    -0.0022701427383594
  36    1.8425763465656e-13
  37    -0.012210663650123
  38    3.9020310275951e-17
  39    -3.7479966575189e-16
  40    -0.013449888148897
  41    -7.4700024522022e-14
  42    -0.0018805398009454
  43    9.8823439733899e-17
  44    6.3511706499904e-15
  45    0.0014238791471381
  46    -2.0629532903253e-14
  47      0.06679745388762
  48    -0.0073279301225727
  49    0.00023689946896906
  50    -5.0925102160342e-14
  51    -0.012207235692526
  52    -0.010943270325141
  53    -4.8781884935068e-14
  54    -0.00078954336153742
  55    -0.00047771114865673
  56     0.066797453887679
  57    -0.0073279301234577
  58    0.0002368994686393
  59    -5.115599950296e-14
  60     0.012207235692529
  61     -0.01094327032514
  62    -4.9131390392116e-14
  63    0.00078954336137595
  64    -0.00047771114845703
  65     0.066797453887593
  66    -0.0073279301225781
  67    0.00023689946872458
  68    -5.1064856791929e-14
  69    -0.012207235692523
  70      0.01094327032514
  71    -4.8838439065171e-14
  72    -0.00078954336156003
  73    0.0004777111486667
  74     0.066797453887652
  75    -0.0073279301234303
  76    0.00023689946901457
  77    -5.1039975385357e-14
  78      0.01220723569253
  79     0.010943270325142
  80    -4.8980002814666e-14
  81    0.00078954336137606
  82    0.00047771114844536
 Sym= A
 Ene=               5
 Spin= Alpha
 Occup=    1.00000
   1    3.578865741505e-14
   2    1.0853320537735e-12
   3    1.2086350741431e-12
   4    -1.3450086342027e-13
   5      0.40996568498974
   6    -1.2581379785286e-12
   7    6.239735205212e-14
   8      0.23373929818195
   9    -5.4172356695177e-13
  10    1.4819981464488e-14
  11     0.032157368013759
  12    2.5729673847725e-14
  13    5.0570501329077e-15
  14    -5.7240269897292e-14
  15    7.4814421936214e-16
  16    3.9752415024481e-17
  17    -4.7357671133678e-14
  18    -0.021411066759882
  19    2.7298983369689e-14
  20    -1.045607157259e-14
  21    -1.5510710634373e-14
  22    3.6438843906795e-14
  23    -0.0058449820484763
  24    3.4807603757161e-13
  25    8.4010979649581e-13
  26    5.8204046693699e-13
  27    2.5473840988363e-13
  28      0.40996568498984
  29    1.4341119316286e-12
  30    6.0869835326187e-14
  31      0.23373929818205
  32    1.9570200867502e-14
  33    -2.646396731851e-14
  34     0.032157368013792
  35      3.1726236508e-14
  36    -9.838161323552e-15
  37    -6.711708036808e-14
  38    -8.0587157344002e-16
  39    2.8058835955413e-16
  40    -5.2854333686051e-14
  41     0.021411066759874
  42    1.8937714201097e-13
  43    9.4812791984546e-15
  44    8.7987940796111e-15
  45    1.2257015028451e-13
  46    0.0058449820485037
  47    6.9749400506829e-14
  48    -1.1308966976849e-13
  49    -7.9948144237575e-15
  50     0.014654011344664
  51    -4.984491782948e-14
  52    -2.845470682712e-14
  53     0.014082496463797
  54    3.3134382649618e-14
  55    -6.5840077582696e-15
  56    -1.4725243057595e-13
  57    -4.270636460192e-13
  58    -9.1485598509891e-15
  59     0.014654011344668
  60    4.4164455907563e-14
  61    -1.1537956542751e-14
  62     0.014082496463785
  63    -9.0486562713245e-14
  64    2.3981729963555e-14
  65    -1.1503650190488e-14
  66    -1.6210538846478e-13
  67    -5.7079800528754e-15
  68     0.014654011344665
  69    -4.7265939675802e-14
  70    2.6548109472338e-14
  71      0.01408249646378
  72    2.6459861690782e-14
  73    1.2841694383331e-15
  74    -2.2709061070347e-13
  75    -5.4671467799787e-13
  76    -2.1382804354922e-14
  77     0.014654011344668
  78    4.1204355442026e-14
  79    9.4221115345518e-15
  80       0.0140824964638
  81    -1.0346830087185e-13
  82    -4.8063364741665e-14
 Sym= A
 Ene=               6
 Spin= Alpha
 Occup=    1.00000
   1      0.71468729839887
   2     0.016036680862458
   3    -0.073489201990721
   4    -0.038765090778554
   5    8.6250306747974e-14
   6    -0.0011626580832336
   7    -2.7060943956462e-15
   8    5.0382063890918e-14
   9     0.024192482637649
  10    9.6968013372359e-14
  11    5.9896852997603e-15
  12     0.007633296323092
  13    4.0896562571412e-14
  14    8.823006053905e-05
  15    -1.9919789711436e-16
  16    1.6452675332401e-15
  17    -0.0018264878909541
  18    -4.5463322340371e-15
  19    0.0025638323087159
  20    9.0166927542526e-16
  21    4.4460869141358e-15
  22     0.006661234390366
  23    -1.9157880384292e-15
  24     -0.71468729839877
  25    -0.016036680862356
  26     0.073489201990875
  27     0.038765090778593
  28    8.6418264399853e-14
  29    -0.0011626580831534
  30    1.3321949966981e-17
  31    4.8966225162598e-14
  32     0.024192482637642
  33    -3.6115871656103e-14
  34    7.4470724189135e-15
  35    0.0076332963230821
  36    -2.2727829735604e-14
  37    -8.8230060543485e-05
  38    9.0166656541235e-17
  39    2.8287169100462e-16
  40    0.0018264878909488
  41    4.6509876661688e-15
  42    -0.0025638323087029
  43    -4.9983354448741e-16
  44    -6.6269242448197e-15
  45    -0.0066612343903601
  46    1.6114654952411e-16
  47    -0.0013212156193022
  48    0.0086362621692177
  49    -0.00021937058788288
  50    3.0600344263233e-15
  51    0.00053485372794616
  52    0.0012792789384239
  53    2.6053177381919e-15
  54    -0.0012692791476492
  55    -0.0027085463377257
  56    0.0013212156193186
  57    -0.0086362621693599
  58    0.00021937058785669
  59    3.1071319754738e-15
  60    0.00053485372794984
  61    -0.0012792789384274
  62    2.5329915584093e-15
  63    -0.0012692791476727
  64    0.0027085463377617
  65    -0.0013212156192918
  66    0.0086362621694482
  67    -0.00021937058782498
  68    2.9516046295534e-15
  69    0.00053485372794442
  70    -0.001279278938423
  71    3.8526887209416e-15
  72    -0.0012692791476933
  73    0.0027085463377862
  74    0.0013212156193164
  75    -0.0086362621694168
  76    0.0002193705878348
  77    3.1339242066303e-15
  78    0.00053485372794873
  79    0.0012792789384269
  80    2.0884005647675e-15
  81    -0.0012692791476902
  82    -0.0027085463377722
 Sym= A
 Ene=               7
 Spin= Alpha
 Occup=    1.00000
   1      0.71362564818543
   2    -0.0059662937118162
   3    -0.047350660019563
   4    -0.010854302832082
   5    -5.1586004556712e-14
   6      0.01364135921174
   7    -3.0337334521269e-15
   8    -3.1295743274475e-14
   9    -0.0019105201186887
  10    2.1952758615779e-15
  11    -3.4531032502811e-15
  12    -0.0018756930606145
  13    4.3742015234819e-14
  14     0.001899967522877
  15    1.9035192243423e-16
  16    -6.8745949446357e-16
  17    0.00080149815405966
  18    2.782923065499e-15
  19    0.00085002465570076
  20    -1.2739572818256e-15
  21    4.2381340962939e-14
  22    0.0035981571952577
  23    1.515633325441e-15
  24      0.71362564818552
  25    -0.0059662937118176
  26    -0.047350660019547
  27    -0.010854302832923
  28    -5.1849905935188e-14
  29    -0.013641359211735
  30    -1.8108725677995e-15
  31    -2.8661187417807e-14
  32    0.0019105201188201
  33    3.5178146503619e-14
  34    -4.6066767704165e-15
  35    0.0018756930603808
  36    -3.2224766817653e-14
  37    0.0018999675228777
  38    -1.2980073064108e-16
  39    -1.7999750683098e-15
  40    0.00080149815405906
  41    -2.7792085162983e-15
  42    0.00085002465564486
  43    7.4529547518093e-16
  44    3.394228278101e-14
  45    0.0035981571952417
  46    4.6094235567516e-16
  47    -0.0068379457123058
  48     0.017374113488574
  49    0.0019527928480101
  50    -1.8391383330802e-15
  51    0.0017140251078589
  52    0.0019314645763903
  53    -1.0189869143628e-15
  54    -0.0020661386788148
  55    -0.0056514027488332
  56    -0.0068379457123092
  57     0.017374113488814
  58    0.0019527928480094
  59    -1.8712924649795e-15
  60    -0.0017140251078613
  61    0.0019314645763936
  62    -1.6328238645008e-15
  63    0.0020661386788434
  64    -0.0056514027488716
  65    -0.0068379457122981
  66     0.017374113488722
  67    0.0019527928480775
  68    -1.7248082966134e-15
  69    0.0017140251078606
  70    -0.0019314645763905
  71    -2.6564193972964e-15
  72    -0.0020661386788185
  73    0.0056514027488724
  74    -0.0068379457123062
  75     0.017374113488773
  76    0.0019527928479652
  77    -1.8811430686786e-15
  78    -0.0017140251078589
  79    -0.0019314645763926
  80    -9.442054610637e-16
  81    0.0020661386788553
  82    0.0056514027488612
 Sym= A
 Ene=               8
 Spin= Alpha
 Occup=    0.00000
   1    -0.0019211125398325
   2     0.083502589159651
   3      0.37935816394448
   4        0.904900230259
   5    -4.0083332778102e-14
   6     0.097836190284076
   7    2.4840455421527e-14
   8    -2.933323014057e-14
   9      0.13236590086091
  10    1.1998062665421e-12
  11    -3.3207906404646e-14
  12      0.22057718654803
  13    2.872863450278e-12
  14    -0.0067574449788481
  15    5.2138294098805e-16
  16    9.5425525358647e-16
  17    -0.0048552841993413
  18    -3.3071505155227e-15
  19    0.0097006831306152
  20    -4.4320404308564e-15
  21    3.9333327132794e-13
  22    -0.029174551909122
  23    -6.4330962238425e-15
  24    -0.0019211125403253
  25      0.08350258915902
  26      0.37935816396388
  27      0.90490023032702
  28    3.9997513642728e-14
  29    -0.097836190284101
  30    1.1343044868732e-14
  31    2.9046556956123e-14
  32     -0.13236590085225
  33    9.1986269719622e-13
  34    3.3012643990084e-14
  35     -0.22057718652987
  36    -1.2542578281277e-12
  37    -0.006757444978822
  38    -9.2705037815612e-16
  39    -9.6283447286762e-15
  40    -0.0048552841994685
  41    -3.3245269021242e-15
  42    0.0097006831295943
  43    4.4700371671458e-15
  44    6.3882986611532e-14
  45    -0.029174551911568
  46    -6.6082641651778e-15
  47    0.0075475948833365
  48     -0.27012232314232
  49     -0.61622703082821
  50    -1.2213821283552e-15
  51    -0.00056794108127216
  52    -0.0094804052961336
  53    -2.5993736093682e-15
  54     0.019769330237459
  55    0.0086691624719637
  56    0.0075475948832475
  57     -0.27012232314494
  58     -0.61622703082157
  59    1.7928277538749e-15
  60    0.0005679410811898
  61    -0.009480405296038
  62    3.7115199282725e-15
  63    -0.019769330237493
  64    0.0086691624725373
  65    0.0075475948833862
  66     -0.27012232313767
  67      -0.6162270308204
  68    -2.445816897864e-15
  69    -0.00056794108126535
  70    0.0094804052961376
  71    -6.2212564560718e-15
  72     0.019769330236819
  73    -0.0086691624708129
  74    0.0075475948833136
  75     -0.27012232314299
  76     -0.61622703082378
  77    2.2284387315257e-15
  78    0.00056794108120209
  79    0.0094804052960363
  80    5.978689540431e-15
  81    -0.019769330237088
  82    -0.0086691624718537
 Sym= A
 Ene=               9
 Spin= Alpha
 Occup=    0.00000
   1    -0.0048878368717188
   2    -0.062588391745766
   3      0.61767651438283
   4       1.2364361856898
   5    -1.5127105209992e-14
   6     -0.17684689921269
   7    2.5438581001683e-13
   8    5.5188341744236e-16
   9      -1.0623556156314
  10    -3.2730216560467e-12
  11    -5.0746384910812e-14
  12     -0.56155828255249
  13    -5.3871984581611e-12
  14     0.066886948384599
  15    -1.2626065863485e-14
  16    3.6683407421752e-14
  17     0.022845776260967
  18    6.2628313878402e-15
  19     -0.25673059194702
  20    3.3660474037854e-14
  21    -1.2249044629936e-12
  22     -0.14009676613535
  23    3.2540400432899e-14
  24    0.0048878368716782
  25     0.062588391745501
  26     -0.61767651438243
  27      -1.2364361856932
  28    6.4320081729303e-14
  29      -0.1768468992127
  30    -1.6372382864436e-13
  31    6.2915884380748e-14
  32      -1.0623556156314
  33    5.5926387316506e-12
  34    3.7247030719787e-14
  35     -0.56155828254774
  36    5.4187929603433e-12
  37    -0.066886948384738
  38    1.4212733685049e-14
  39    1.5343665222125e-14
  40    -0.022845776260921
  41    -1.1986101629675e-14
  42      0.25673059194714
  43    -3.1172463745783e-14
  44    -1.4802052294154e-12
  45      0.14009676613543
  46    -4.6967195956514e-14
  47    -0.0025343249873647
  48      0.55423958114581
  49      0.90220922457417
  50    -8.6549851318789e-15
  51    -0.0027942317999226
  52    -0.015668067029654
  53    -3.7336412452779e-14
  54     -0.11438958176528
  55     0.032590905756134
  56    0.0025343249874109
  57     -0.55423958114932
  58     -0.90220922457221
  59    -7.8403446208701e-15
  60    -0.0027942317999049
  61     0.015668067029687
  62    4.6056136632758e-16
  63     -0.11438958176618
  64    -0.032590905754893
  65    -0.0025343249874599
  66      0.55423958113363
  67      0.90220922456334
  68    -8.7844123190312e-15
  69    -0.002794231799903
  70     0.015668067029634
  71    -5.7814088507197e-16
  72     -0.11438958176337
  73     -0.03259090575941
  74     0.002534324987728
  75      -0.5542395811305
  76     -0.90220922456182
  77    -4.4935424074437e-15
  78    -0.0027942317998853
  79    -0.015668067029679
  80    -4.8806782758895e-14
  81     -0.11438958176305
  82     0.032590905760156
 Sym= A
 Ene=              10
 Spin= Alpha
 Occup=    0.00000
   1    1.2477372679022e-12
   2    1.7420476247847e-12
   3    -4.6070791419169e-11
   4    -1.5913537777736e-10
   5    3.026016868258e-14
   6    -2.1342070028621e-13
   7     -0.10416365352872
   8    -6.8143237792941e-15
   9    1.8496206864383e-11
  10      0.51755644103111
  11    -1.4259819757706e-14
  12    4.8456810808431e-11
  13     -0.24145033612915
  14    -5.5649697575824e-14
  15    8.5671865733104e-14
  16    -0.037816154264196
  17    3.8746344833577e-13
  18    7.1894179279531e-15
  19    1.9228738881908e-12
  20    -1.898037973199e-13
  21      0.22779001051318
  22    5.6231769946662e-12
  23    -3.2831388422101e-15
  24    -1.6257620199192e-12
  25    -2.700436007436e-12
  26    5.1658311278474e-11
  27    1.5524139999224e-10
  28    -3.3061119322442e-14
  29    3.8975948400858e-13
  30     -0.10416365352986
  31    -5.2671755634934e-15
  32    1.6859688015515e-11
  33      0.51755644104579
  34    -6.0915884697793e-15
  35    4.7740286489451e-11
  36     -0.24145033612256
  37    1.399420168138e-13
  38    -9.1888255524043e-14
  39     0.037816154265076
  40    -4.7966765714065e-13
  41    1.4346962396813e-15
  42    -5.923940017715e-13
  43    1.855595806558e-13
  44     -0.22779001053626
  45    -4.1481663839644e-12
  46    2.3082093385694e-14
  47      0.15106854522914
  48       -0.263105344764
  49     -0.47548084015829
  50    4.6958748653206e-15
  51     0.026557506721853
  52      0.04940483581824
  53    1.2935719327551e-13
  54     0.068472960348683
  55    -0.050264997923893
  56      0.15106854522778
  57      -0.2631053448466
  58     -0.47548084013226
  59    -5.5970171752812e-15
  60    -0.026557506722089
  61     0.049404835818852
  62    -1.4282654083979e-13
  63    -0.068472960359164
  64    -0.050264997902053
  65     -0.15106854522852
  66      0.26310534478875
  67      0.47548084013185
  68    5.6447941726559e-16
  69    -0.026557506722147
  70     0.049404835818831
  71    -1.1633189329779e-13
  72    -0.068472960352943
  73    -0.050264997918861
  74     -0.15106854522867
  75      0.26310534482025
  76      0.47548084016127