[Molden Format]
made by pyscf v[2.13.1]
[Atoms] (AU)
C   1   6     0.00000000000000     1.26026583578789     0.00000000000000
C   2   6     0.00000000000000    -1.26026583578789     0.00000000000000
H   3   1     0.00000000000000     2.32345974964118     1.74287671684983
H   4   1     0.00000000000000    -2.32345974964118     1.74287671684983
H   5   1     0.00000000000000     2.32345974964118    -1.74287671684983
H   6   1     0.00000000000000    -2.32345974964118    -1.74287671684983
[GTO]
1 0
 s    8 1.00
                  6665  0.00069158396281299
                  1000  0.0053257961529341
                   228   0.027060721042034
                 64.71    0.10165684614077
                 21.06     0.2745748236174
                 7.495    0.44829431892377
                 2.797    0.28490261071525
                0.5215   0.015194859206082
 s    8 1.00
                  6665  -0.00029326965268655
                  1000  -0.0023180354739745
                   228  -0.011499786038565
                 64.71  -0.046826727009787
                 21.06   -0.12846616875047
                 7.495   -0.30126627246289
                 2.797   -0.25563070233011
                0.5215      1.093793361012
 s    1 1.00
                0.1596                   1
 s    1 1.00
                0.0469                   1
 p    3 1.00
                 9.439   0.056979251590039
                 2.002    0.31320721150073
                0.5456    0.76037674173753
 p    1 1.00
                0.1517                   1
 p    1 1.00
               0.04041                   1
 d    1 1.00
                  0.55                   1
 d    1 1.00
                 0.151                   1

2 0
 s    8 1.00
                  6665  0.00069158396281299
                  1000  0.0053257961529341
                   228   0.027060721042034
                 64.71    0.10165684614077
                 21.06     0.2745748236174
                 7.495    0.44829431892377
                 2.797    0.28490261071525
                0.5215   0.015194859206082
 s    8 1.00
                  6665  -0.00029326965268655
                  1000  -0.0023180354739745
                   228  -0.011499786038565
                 64.71  -0.046826727009787
                 21.06   -0.12846616875047
                 7.495   -0.30126627246289
                 2.797   -0.25563070233011
                0.5215      1.093793361012
 s    1 1.00
                0.1596                   1
 s    1 1.00
                0.0469                   1
 p    3 1.00
                 9.439   0.056979251590039
                 2.002    0.31320721150073
                0.5456    0.76037674173753
 p    1 1.00
                0.1517                   1
 p    1 1.00
               0.04041                   1
 d    1 1.00
                  0.55                   1
 d    1 1.00
                 0.151                   1

3 0
 s    3 1.00
                 13.01   0.033498726389998
                 1.962    0.23480080117413
                0.4446     0.8136829578829
 s    1 1.00
                 0.122                   1
 s    1 1.00
               0.02974                   1
 p    1 1.00
                 0.727                   1
 p    1 1.00
                 0.141                   1

4 0
 s    3 1.00
                 13.01   0.033498726389998
                 1.962    0.23480080117413
                0.4446     0.8136829578829
 s    1 1.00
                 0.122                   1
 s    1 1.00
               0.02974                   1
 p    1 1.00
                 0.727                   1
 p    1 1.00
                 0.141                   1

5 0
 s    3 1.00
                 13.01   0.033498726389998
                 1.962    0.23480080117413
                0.4446     0.8136829578829
 s    1 1.00
                 0.122                   1
 s    1 1.00
               0.02974                   1
 p    1 1.00
                 0.727                   1
 p    1 1.00
                 0.141                   1

6 0
 s    3 1.00
                 13.01   0.033498726389998
                 1.962    0.23480080117413
                0.4446     0.8136829578829
 s    1 1.00
                 0.122                   1
 s    1 1.00
               0.02974                   1
 p    1 1.00
                 0.727                   1
 p    1 1.00
                 0.141                   1

[5d]
[7f]
[9g]

[MO]
 Sym= A
 Ene=               0
 Spin= Alpha
 Occup=    1.00000
   1    4.1885469924987e-14
   2    8.1294745877031e-14
   3    -1.8391776968918e-12
   4    -1.1640327388182e-11
   5    1.6751386993774e-15
   6    -2.8713060447085e-14
   7     -0.31136300667913
   8    3.2766982893379e-15
   9    2.0489069001951e-12
  10     0.071358262198264
  11    9.0505351918617e-16
  12    4.0613888704334e-12
  13      0.15219931716164
  14    2.4235664882083e-14
  15    2.4427171308852e-16
  16    -0.038686817801462
  17    1.3551947048656e-14
  18    -7.9513521629586e-17
  19    -1.55007582986e-14
  20    -1.3308505479628e-15
  21      0.11482988357879
  22    3.6278147633836e-13
  23    3.9315426763844e-16
  24    -3.111722231671e-14
  25    -4.0664807383017e-14
  26    1.4807691234476e-12
  27    1.1293113019405e-11
  28    2.3127063739844e-15
  29    2.8930617044962e-14
  30      0.31136300667897
  31     6.06344463453e-16
  32    2.1321072251487e-12
  33    -0.071358262199764
  34    -9.1947986493489e-16
  35    4.0318141797608e-12
  36     -0.15219931716223
  37    -2.1696018044289e-14
  38    -2.5354788135063e-16
  39    -0.038686817801446
  40    -1.7127961345535e-14
  41    1.9128523845897e-16
  42    -7.7935380775714e-14
  43    1.2419015643915e-15
  44      0.11482988357901
  45    -3.6905653416454e-13
  46    -1.5519301883262e-16
  47     -0.27140162168161
  48     -0.50733390661359
  49     -0.11358277922455
  50    -8.2138153998074e-17
  51    0.0075996953540322
  52    0.0015384628441533
  53    -4.0532569088512e-17
  54     0.044194698149172
  55     0.094974420470468
  56      0.27140162168154
  57      0.50733390661599
  58      0.11358277922525
  59    1.7224646703757e-16
  60    0.0075996953540366
  61     -0.00153846284416
  62    -2.3188394911068e-16
  63      0.04419469814961
  64    -0.094974420471107
  65      0.27140162168159
  66      0.50733390661314
  67      0.11358277922177
  68    7.0142168695259e-17
  69    -0.0075996953540536
  70    0.0015384628441593
  71    -1.8868195223039e-15
  72    -0.044194698149148
  73     0.094974420469904
  74     -0.27140162168153
  75     -0.50733390661493
  76     -0.11358277922232
  77    -2.7188556093715e-17
  78    -0.0075996953540538
  79    -0.0015384628441623
  80    1.3589782794257e-15
  81    -0.044194698149403
  82     -0.09497442047049
 Sym= A
 Ene=               1
 Spin= Alpha
 Occup=    1.00000
   1    4.4768920045751e-14
   2    3.9841193535434e-13
   3    -2.0586120356415e-12
   4    5.7015895896419e-13
   5    -4.1424618492479e-14
   6    -2.9148428628049e-13
   7      0.33262953584121
   8    -2.1809971731018e-14
   9    2.5184361219216e-12
  10    -0.047284447962702
  11    -4.0616075067022e-15
  12    1.0633715188267e-13
  13    -0.024369291505731
  14    -6.3473327075834e-15
  15    2.1071872576451e-16
  16    -0.0013133468060565
  17    3.619301576572e-14
  18    2.2148741161794e-15
  19    4.780479289112e-13
  20    -9.1045859831623e-16
  21    -0.069228752016485
  22    4.3197023398543e-13
  23    -2.2049710322005e-15
  24    -1.5708849948961e-14
  25    -2.7696636116676e-13
  26    1.8821374170263e-12
  27    -8.0573773353052e-13
  28    -4.1197198274875e-14
  29    6.6122898883165e-13
  30      0.33262953584144
  31    -2.6534432831652e-14
  32    2.8536140386059e-12
  33    -0.047284447963114
  34    -2.3152356356489e-15
  35    1.4361761105097e-13
  36    -0.024369291507057
  37    -2.9829524085062e-14
  38    -5.1447474346139e-17
  39    0.0013133468060129
  40    -4.9356889006011e-14
  41    -2.1689662073962e-15
  42    -4.220247318487e-13
  43    9.1603494692503e-16
  44     0.069228752017361
  45    -3.6120769407696e-13
  46    -2.2454891113543e-15
  47      0.21913623682177
  48      0.25661654531427
  49     0.025747434249865
  50    -1.2787293445268e-15
  51    -0.0076657752076356
  52    -0.0048825581688506
  53    3.9998429107046e-16
  54    -0.011490633299348
  55    -0.049469516579267
  56      0.21913623682156
  57      0.25661654531882
  58     0.025747434251121
  59    -1.5416296119332e-15
  60    0.0076657752075899
  61    -0.0048825581687909
  62    -2.6293358766325e-15
  63     0.011490633299935
  64    -0.049469516580284
  65     -0.21913623682172
  66     -0.25661654531664
  67    -0.025747434250153
  68    -1.6366068420095e-15
  69    0.0076657752075832
  70    -0.0048825581688082
  71    -1.0666809379035e-15
  72     0.011490633299771
  73    -0.049469516579673
  74     -0.21913623682234
  75     -0.25661654531641
  76     -0.02574743425074
  77    -1.3190002446064e-15
  78    -0.0076657752076158
  79    -0.0048825581688662
  80    -5.1616662927278e-16
  81    -0.011490633299498
  82    -0.049469516579748
 Sym= A
 Ene=               2
 Spin= Alpha
 Occup=    1.00000
   1    -0.00064257995695621
   2     0.086479808313722
   3       0.2333487899613
   4      0.02660289557626
   5    -6.5940828552513e-14
   6     -0.43622060470586
   7    -3.4778165784573e-13
   8    -3.640532871862e-14
   9    -0.070753088676422
  10    2.9138158420475e-13
  11    -2.703261555627e-15
  12    -0.0054587829617043
  13    -3.8171283068877e-13
  14    -0.016766361756255
  15    -3.242801657732e-16
  16    1.1593912183345e-14
  17    -0.0079150132855541
  18    3.2937889335076e-15
  19     0.061997880787772
  20    3.3128894485394e-16
  21    -1.942908805659e-14
  22     0.041813992220293
  23    6.7897746842942e-17
  24    -0.00064257995694821
  25     0.086479808314085
  26      0.23334878995988
  27     0.026602895576438
  28    -6.6036009973653e-14
  29      0.43622060470569
  30    -4.0352151335939e-13
  31    -3.9302574802994e-14
  32     0.070753088673318
  33    4.2227793389514e-13
  34    -7.5442384069685e-15
  35    0.0054587829612669
  36    6.8296506721616e-13
  37    -0.016766361756225
  38    2.9033072190563e-16
  39    -1.2336400956799e-15
  40    -0.0079150132855099
  41    -3.7031788029824e-15
  42     0.061997880788175
  43    -2.2935412871755e-16
  44    -2.8721130041883e-13
  45     0.041813992220709
  46    -1.5780733163504e-15
  47     -0.14854897009921
  48     -0.16105572994439
  49    -0.005568438842405
  50    -1.9577153405073e-15
  51    -0.007394161217814
  52     0.005973100279573
  53    -2.9497494483165e-15
  54     0.034830925694045
  55    0.0093699897683826
  56     -0.14854897009904
  57     -0.16105572994677
  58    -0.0055684388436076
  59    -2.7263209765386e-15
  60    0.0073941612178342
  61    0.0059731002795542
  62    -1.620779565665e-15
  63    -0.034830925694354
  64    0.0093699897689539
  65     -0.14854897009875
  66     -0.16105572994367
  67    -0.0055684388429531
  68    -2.4727027630192e-15
  69    -0.0073941612178332
  70    -0.0059731002795619
  71    -2.2832247108374e-15
  72     0.034830925693906
  73    -0.0093699897681662
  74     -0.14854897009847
  75     -0.16105572994454
  76    -0.0055684388424023
  77    -2.2714555806823e-15
  78    0.0073941612178533
  79    -0.0059731002795382
  80    -1.9877398059998e-15
  81    -0.034830925694165
  82    -0.0093699897684399
 Sym= A
 Ene=               3
 Spin= Alpha
 Occup=    1.00000
   1    0.00014524345067039
   2      0.24668392216311
   3        0.423723112595
   4     -0.39343508231475
   5    5.1362302523639e-13
   6      0.16859756816402
   7    -3.7103288098624e-13
   8    2.919226907316e-13
   9     -0.28796730634061
  10    2.3922636313277e-13
  11    4.1737001090633e-14
  12     0.084130852132305
  13    -5.0774188834523e-14
  14    0.0098328681200084
  15    1.3249422938678e-17
  16    9.2157897450467e-15
  17    0.0067387322996554
  18    -2.6888397743464e-14
  19     -0.12124393865364
  20    -1.4479843618113e-15
  21    -1.3646224643576e-13
  22    -0.049493892975251
  23    -4.2095618336561e-15
  24    -0.00014524345071514
  25     -0.24668392216057
  26     -0.42372311259381
  27      0.39343508231454
  28    5.1297996413051e-13
  29       0.1685975681648
  30    -3.7435667638863e-13
  31    2.9481391095631e-13
  32     -0.28796730634022
  33    -7.3396198188064e-14
  34    3.925020242584e-14
  35     0.084130852132386
  36    -3.7169091724014e-14
  37    -0.0098328681200848
  38    -4.8029640857038e-17
  39    1.2995682828848e-16
  40    -0.0067387322997629
  41    2.6793107508502e-14
  42      0.12124393865357
  43    1.5023539629159e-15
  44    -2.8763122147382e-13
  45     0.049493892975228
  46    9.3094344561368e-15
  47      0.20653491521621
  48      0.24077119444337
  49    -0.0092652245481807
  50    1.8417938757636e-14
  51    -0.0063898512038459
  52    -0.016484585452066
  53    1.6482000515856e-14
  54    -0.046650912108309
  55    -0.017946621221288
  56     -0.20653491521565
  57     -0.24077119444364
  58    0.0092652245484153
  59    1.8323560888183e-14
  60    -0.0063898512037685
  61     0.016484585451953
  62    1.7219105007813e-14
  63    -0.046650912108353
  64     0.017946621221368
  65      0.20653491521669
  66      0.24077119444361
  67    -0.0092652245482782
  68    1.8301408066282e-14
  69    -0.0063898512038748
  70      0.01648458545208
  71    1.4974640199496e-14
  72    -0.046650912108401
  73     0.017946621221305
  74     -0.20653491521513
  75     -0.24077119444265
  76    0.0092652245481837
  77    1.8314337564985e-14
  78    -0.0063898512037588
  79    -0.016484585451944
  80    1.9293690251017e-14
  81    -0.046650912108365
  82    -0.017946621221095
 Sym= A
 Ene=               4
 Spin= Alpha
 Occup=    1.00000
   1    -0.0054539053549098
   2      0.29290558962332
   3     0.081356987157126
   4    -0.011016086920627
   5    4.5090914673696e-13
   6     -0.02622821948351
   7    6.8712459676712e-14
   8    2.5666053523144e-13
   9    -0.030982521665902
  10    -1.1645071513325e-13
  11    3.416649882197e-14
  12    0.0053517432558883
  13    3.7488245430016e-14
  14    -0.0053729337795695
  15    6.239615085988e-17
  16    -2.9948632661328e-15
  17    -0.011108699587956
  18    -2.357391460947e-14
  19    -0.033034607119819
  20    -2.0858679960864e-16
  21    2.6401531093171e-14
  22    -0.019433860229344
  23    -6.6012453813899e-15
  24    -0.0054539053549795
  25       0.2929055896254
  26      0.08135698716148
  27    -0.011016086922228
  28    4.5107450493706e-13
  29     0.026228219482095
  30    6.3438489539812e-14
  31    2.5731533628805e-13
  32      0.03098252166871
  33    -1.8537123962388e-13
  34    3.6573283440588e-14
  35    -0.0053517432560752
  36    -1.1523894509972e-13
  37    -0.0053729337794873
  38    -9.4312475205965e-17
  39    1.5883710993886e-15
  40    -0.011108699587911
  41    2.3562561092929e-14
  42    -0.033034607120879
  43    1.8551776689607e-16
  44    1.1330122832477e-13
  45    -0.019433860229826
  46    6.3862101438487e-15
  47      0.14892286524598
  48     0.071159786492699
  49    0.0029366210209209
  50    1.6059661623306e-14
  51    -0.010029198228614
  52    -0.015290397879037
  53    1.6101787422416e-14
  54    -0.018127901471349
  55    -0.0049057558217012
  56      0.14892286524772
  57     0.071159786494909
  58    0.0029366210210613
  59    1.6186626894607e-14
  60     0.010029198228663
  61    -0.015290397879171
  62    1.5081713847356e-14
  63     0.018127901471719
  64    -0.0049057558219055
  65      0.14892286524588
  66     0.071159786492498
  67    0.0029366210209287
  68    1.6154300650351e-14
  69    -0.010029198228607
  70     0.015290397879035
  71    1.5792362052691e-14
  72     -0.01812790147131
  73    0.0049057558216356
  74      0.14892286524762
  75     0.071159786494102
  76    0.0029366210209148
  77    1.608998618702e-14
  78     0.010029198228661
  79     0.015290397879168
  80    1.5397428652539e-14
  81     0.018127901471638
  82    0.0049057558216883
 Sym= A
 Ene=               5
 Spin= Alpha
 Occup=    1.00000
   1    -1.3042559126899e-14
   2    -6.2055742750339e-13
   3    -4.7949074455601e-13
   4    5.2201019951839e-13
   5      0.40996568498974
   6    -2.5150974796322e-13
   7    3.460051256721e-14
   8      0.23373929818195
   9    2.7979291679559e-13
  10    1.8756656694637e-14
  11     0.032157368013759
  12    -1.2476150739623e-13
  13    7.023122707972e-15
  14    -9.4670451704894e-15
  15    7.4814421936269e-16
  16    1.7122168094827e-16
  17    1.3793135964819e-15
  18    -0.021411066759882
  19    1.8569333033082e-13
  20    -1.0456071572587e-14
  21    -9.7526921018189e-15
  22    7.6184042613607e-14
  23    -0.0058449820484763
  24    2.0316434481105e-14
  25    1.0558523350593e-15
  26    4.2236211353995e-13
  27    -4.6610603724084e-13
  28      0.40996568498984
  29    -1.6970020901011e-13
  30    3.2734194610586e-14
  31      0.23373929818205
  32     2.26736046452e-13
  33    -2.2449645525733e-14
  34     0.032157368013792
  35    -1.1256824850702e-13
  36    -7.7064771820642e-15
  37    1.5423812831025e-14
  38    -8.0587157344035e-16
  39    1.912151075965e-16
  40    2.0447679492873e-14
  41     0.021411066759874
  42    -8.2358225696027e-14
  43    9.4812791984515e-15
  44    2.9158265173271e-15
  45    -1.546643109282e-14
  46    0.0058449820485037
  47    -4.2315996033355e-13
  48    -3.6562812844286e-13
  49    1.0857977912053e-14
  50     0.014654011344664
  51     1.76999554229e-14
  52    3.8076339655128e-14
  53     0.014082496463797
  54    8.3773080555867e-14
  55    2.1577939547516e-14
  56    9.1063134982533e-14
  57    1.6864761572264e-13
  58    -2.3126651029849e-14
  59     0.014654011344668
  60    -5.6350632316626e-16
  61    -3.8504941391312e-15
  62     0.014082496463785
  63    2.344523898607e-14
  64    -1.0213685585953e-14
  65    -4.6786002845473e-13
  66    -3.720451812023e-13
  67    1.7350715088963e-14
  68     0.014654011344665
  69    1.8998183894195e-14
  70    -3.9163596799008e-14
  71      0.01408249646378
  72    7.5214470416717e-14
  73    -1.8662699990362e-14
  74    4.8368574092912e-14
  75    9.269933300383e-14
  76    -3.0907808675918e-14
  77     0.014654011344668
  78    -2.2263183005722e-15
  79    2.5573374152618e-15
  80       0.0140824964638
  81    1.2443768537925e-14
  82    -5.4461836240924e-15
 Sym= A
 Ene=               6
 Spin= Alpha
 Occup=    1.00000
   1      0.71474391368562
   2      0.01288236829347
   3    -0.078915556092238
   4    -0.033735370811755
   5    8.7650525608336e-15
   6    -0.0033194833054326
   7    2.212534973305e-15
   8    6.2161632459168e-15
   9     0.027878191016159
  10    9.3891690571896e-14
  11    -1.0679096915344e-16
  12    0.0065577040197188
  13    4.1539148666659e-14
  14    -3.754651972717e-05
  15    -1.9938368377531e-16
  16    1.5261004441519e-15
  17    -0.0019128403907912
  18    -4.987386659794e-16
  19    0.0041150161139491
  20    9.2026592054702e-16
  21    6.1571071372559e-15
  22    0.0072949140771728
  23    -8.5094350245894e-16
  24     -0.71474391366671
  25    -0.012882368293292
  26     0.078915556091288
  27     0.033735370811512
  28    8.9412501065217e-15
  29    -0.0033194833055243
  30    4.9860880992327e-15
  31    4.7632236748854e-15
  32      0.02787819101625
  33    -3.5206571150378e-14
  34    1.3825269594823e-15
  35    0.0065577040197552
  36    -2.2270058400138e-14
  37    3.7546519762747e-05
  38    9.0788437379272e-17
  39    2.8122816533848e-16
  40    0.0019128403907964
  41    6.046216303047e-16
  42    -0.0041150161139138
  43    -5.190928184117e-16
  44    -2.9088410704525e-15
  45    -0.0072949140770702
  46    -9.6908002337989e-16
  47    -0.0039633551095512
  48    0.0055569807888786
  49    -0.00010086613463385
  50    2.8961068707396e-16
  51    0.00061663760167021
  52    0.0014902573555454
  53    -4.150920460683e-17
  54    -0.00067261622548867
  55    -0.0024791915690907
  56    0.0039633551094381
  57    -0.0055569807885679
  58    0.00010086613465625
  59    3.3791938808551e-16
  60    0.00061663760163866
  61    -0.0014902573555062
  62    -1.2327047371996e-16
  63    -0.00067261622545677
  64    0.0024791915689765
  65    -0.0039633551095472
  66    0.0055569807891058
  67    -0.00010086613457472
  68    1.8266270029526e-16
  69    0.00061663760166884
  70    -0.0014902573555447
  71    1.2252462551639e-15
  72    -0.00067261622553151
  73    0.0024791915691509
  74    0.0039633551094291
  75    -0.0055569807886377
  76    0.00010086613463728
  77    3.6483179768211e-16
  78    0.00061663760163742
  79    0.0014902573555056
  80    -5.9443630591069e-16
  81    -0.00067261622547415
  82    -0.0024791915689906
 Sym= A
 Ene=               7
 Spin= Alpha
 Occup=    1.00000
   1      0.71417126901723
   2    0.0080935206306185
   3     -0.03892712671027
   4    -0.010743693811078
   5    9.8858275507184e-16
   6    0.0030451769658048
   7    -2.2224325106234e-15
   8    -1.3143398199023e-15
   9    -0.0047450793947787
  10    2.9946570451502e-15
  11    6.7534884580834e-16
  12    -0.0017743756131832
  13    3.6936833310285e-14
  14    0.0013127249326535
  15    1.8607858993744e-16
  16    -6.819717222087e-16
  17    0.00016773683394229
  18    3.2940368318578e-17
  19    0.00083051411332744
  20    -1.2768036865852e-15
  21    4.2072865160487e-14
  22    0.0037066709704516
  23    7.4071390418689e-16
  24      0.71417126903616
  25    0.0080935206309707
  26    -0.038927126712321
  27    -0.010743693812745
  28    7.2918874404495e-16
  29    -0.003045176965721
  30    -8.682917140033e-16
  31    1.287112476114e-15
  32    0.0047450793941309
  33    3.5646189197292e-14
  34    -4.8507826891302e-16
  35    0.0017743756127864
  36    -2.2992461388899e-14
  37     0.001312724932654
  38    -1.2752870056388e-16
  39    -1.8351152021719e-15
  40    0.0001677368338919
  41    -3.8628865099221e-17
  42    0.00083051411338408
  43    7.4882484822551e-16
  44     3.40285987293e-14
  45    0.0037066709706331
  46    1.1961387996203e-15
  47    -0.0038954343373337
  48      0.01683697354989
  49    0.0019555158530847
  50    4.6427830882097e-17
  51    0.0011375225482183
  52    0.0014281869891038
  53    7.9834245826486e-16
  54    -0.0020619731691622
  55    -0.0056571077086949
  56    -0.0038954343374312
  57     0.016836973550242
  58    0.0019555158530644
  59    2.742388273627e-18
  60    -0.0011375225482365
  61    0.0014281869891458
  62    1.7041984476421e-16
  63    0.0020619731692023
  64    -0.0056571077087893
  65    -0.0038954343373271
  66     0.016836973550039
  67    0.0019555158531401
  68    1.5357916308707e-16
  69    0.0011375225482201
  70    -0.001428186989104
  71    -8.3921319527234e-16
  72    -0.002061973169167
  73    0.0056571077087347
  74    -0.0038954343374297
  75     0.016836973550203
  76    0.0019555158530389
  77    -1.2097861236912e-18
  78    -0.0011375225482341
  79    -0.0014281869891447
  80    8.6491542597701e-16
  81    0.0020619731692143
  82    0.0056571077087788
 Sym= A
 Ene=               8
 Spin= Alpha
 Occup=    0.00000
   1    -0.00020242864025809
   2    -0.090253051402234
   3        -0.25230668919
   4     -0.74454519350825
   5    3.4112073203707e-15
   6    -0.045703870752208
   7    -9.5265003874285e-13
   8    6.3161100620642e-15
   9     -0.31999257671489
  10    -7.6515764357012e-13
  11    -8.5441906576771e-15
  12     -0.46415742706646
  13    -1.3724334526235e-11
  14     -0.00352955514945
  15    4.5428252828901e-17
  16    8.4253016172427e-14
  17    -0.0080656917350663
  18    1.5007902435431e-16
  19    -0.030341060062118
  20    -1.6523680617593e-15
  21    -1.1952850323494e-12
  22    -0.007619023219725
  23    -1.0168174050757e-15
  24    0.00020242864016743
  25     0.090253051401854
  26      0.25230668919246
  27      0.74454519351186
  28    -2.8323527525516e-15
  29    -0.045703870751978
  30    -8.8085561228451e-13
  31    -4.7475668184935e-15
  32     -0.31999257671548
  33    -1.827491228618e-12
  34    6.1581105046877e-15
  35     -0.46415742706656
  36    4.6503661368662e-12
  37    0.0035295551494463
  38    6.7394993605591e-18
  39    -5.5456197649356e-14
  40    0.0080656917351035
  41    2.4079280688012e-16
  42     0.030341060062641
  43    1.9778944643756e-15
  44    -1.2457965020087e-12
  45    0.0076190232197145
  46    -1.0635978719832e-15
  47    0.0013602170603085
  48      0.34980977064368
  49        1.345147188971
  50    -1.0144566237755e-16
  51     0.005322812123686
  52    0.0057058518646378
  53    1.0607647672377e-15
  54     0.030600105874113
  55     -0.06465311677985
  56    -0.001360217060422
  57     -0.34980977064278
  58      -1.3451471889451
  59    -5.9509322427912e-17
  60    0.0053228121236211
  61    -0.0057058518645425
  62    -7.5720373126724e-16
  63     0.030600105874015
  64     0.064653116780863
  65    0.0013602170603591
  66      0.34980977063639
  67       1.3451471889237
  68    7.6343224258871e-17
  69    0.0053228121235973
  70    -0.0057058518645924
  71    -1.9523177318087e-15
  72     0.030600105874113
  73     0.064653116779975
  74    -0.0013602170603876
  75      -0.3498097706426
  76        -1.34514718895
  77    5.6444956440809e-17
  78    0.0053228121236629
  79    0.0057058518646224
  80    5.1408853835334e-16
  81     0.030600105873002
  82    -0.064653116780059
 Sym= A
 Ene=               9
 Spin= Alpha
 Occup=    0.00000
   1    -0.0002642864927079
   2      0.03302201949519
   3     0.098338912763092
   4     0.086269787896254
   5    -1.9357259389517e-14
   6      0.12107576212536
   7    -3.9518007632274e-13
   8    -1.629819244911e-14
   9      0.16328396826781
  10    1.5308645419197e-12
  11    2.1466628265935e-14
  12     -0.80356370975113
  13    -4.7712997448698e-13
  14    -0.048641675016569
  15    7.5389024501678e-15
  16    2.2881527218977e-13
  17     0.011221752892849
  18    -1.7271121212082e-15
  19     0.021219188155418
  20    4.8888444929167e-16
  21    -1.0544851899563e-13
  22    -0.0058962593153117
  23    -1.4199914526696e-14
  24    -0.00026428649305111
  25     0.033022019494735
  26     0.098338912768805
  27      0.08626978798991
  28    2.843226595437e-16
  29     -0.12107576212505
  30    -1.3943174732771e-14
  31    -8.9113978196747e-15
  32     -0.16328396827787
  33    1.0132633313245e-12
  34    6.0536563275717e-15
  35      0.80356370977456
  36    2.8382087871392e-12
  37    -0.048641675016411
  38    5.200073122772e-15
  39    1.7476013864796e-14
  40     0.011221752892961
  41    -5.9472140719978e-16
  42     0.021219188158463
  43    5.425473964388e-15
  44    -6.8586303068036e-13
  45    -0.005896259314789
  46    -2.6641599641267e-15
  47     0.053187058414866
  48    -0.071906912207858
  49     -0.29528603254004
  50    1.9004282323158e-15
  51    2.4656121125079e-06
  52    0.0087481784766172
  53    7.6389734547256e-16
  54    -0.081801291872742
  55     0.019376695898665
  56     0.053187058413846
  57     -0.07190691222661
  58     -0.29528603252249
  59    7.829084983499e-16
  60    -2.4656118782907e-06
  61    0.0087481784764802
  62    -6.3097540845751e-15
  63     0.081801291870025
  64      0.01937669590382
  65     0.053187058414108
  66    -0.071906912208076
  67     -0.29528603252186
  68    -4.9323932641035e-16
  69    2.4656118906024e-06
  70    -0.0087481784764383
  71    1.6056022580981e-14
  72    -0.081801291872842
  73    -0.019376695899997
  74     0.053187058414762
  75    -0.071906912218754
  76     -0.29528603253452
  77    3.2842872864053e-15
  78    -2.4656121033861e-06
  79    -0.008748178476612
  80    2.0076127978375e-14
  81     0.081801291871154
  82     -0.01937669590022
 Sym= A
 Ene=              10
 Spin= Alpha
 Occup=    0.00000
   1    -1.2873003483145e-14
   2    -1.6828558705789e-12
   3    -1.927302032679e-11
   4    1.646517787955e-11
   5    -5.0396721956838e-13
   6    -4.1511910737376e-12
   7      0.11069727142464
   8    -4.3699427153305e-13
   9    1.5120755055138e-11
  10      0.72277661521295
  11    -2.8260527356275e-13
  12    7.4469529819022e-12
  13      0.76826855765022
  14    -4.2094945981912e-13
  15    -2.9228112013301e-14
  16     -0.19523066029131
  17    -1.8578584942845e-13
  18    -4.0758758653277e-14
  19    6.2182308631804e-12
  20    -1.3277115834968e-14
  21      0.42559106049331
  22    1.5030476230972e-12
  23    -3.0251762088348e-15
  24    -6.4978853880992e-13
  25    1.5668582595595e-13
  26    3.697424823324e-11
  27      7.5972826153e-12
  28    5.2759979253141e-13
  29    -3.3805193377088e-12
  30      0.11069727142474
  31    4.9145534496598e-13
  32    7.303906343555e-12
  33      0.72277661521856
  34    1.9938222772038e-13
  35    6.8640108022803e-13
  36       0.7682685576697
  37    1.9904842681375e-13
  38    -3.1771214804601e-14
  39      0.19523066029109
  40    2.1631401638848e-13
  41    -2.7591878533644e-14
  42    -4.6051564910936e-12
  43    2.7220946344683e-14
  44     -0.42559106050269
  45    -2.0120538414416e-12
  46    -3.9213451699881e-14
  47    -0.040127652286849
  48      -1.1508540249432
  49      -1.8226970801089
  50    -1.5488966038489e-14
  51     0.031042783680942
  52    0.0044521847342182
  53    -2.3032629413472e-15
  54     -0.16038032639468
  55      0.25528733885113
  56    -0.040127652288575
  57      -1.1508540249682
  58      -1.8226970801162
  59    2.9168597222989e-14
  60    -0.031042783680023
  61    0.0044521847337951
  62    7.1005565459604e-14
  63       0.1603803263959
  64      0.25528733886504
  65      0.04012765228781
  66       1.1508540249283
  67        1.822697080098
  68    -2.8885359863456e-14
  69    -0.031042783680084
  70    0.0044521847336852
  71    -1.2939133735401e-13
  72      0.16038032639863
  73      0.25528733885418
  74     0.040127652287381
  75        1.150854024954
  76       1.8226970801134
  77    1.5532830416575e-14