[Molden Format]
made by pyscf v[2.13.1]
[Atoms] (AU)
C   1   6     0.00000000000000     1.26026583578789     0.00000000000000
C   2   6     0.00000000000000    -1.26026583578789     0.00000000000000
H   3   1     0.00000000000000     2.32345974964118     1.74287671684983
H   4   1     0.00000000000000    -2.32345974964118     1.74287671684983
H   5   1     0.00000000000000     2.32345974964118    -1.74287671684983
H   6   1     0.00000000000000    -2.32345974964118    -1.74287671684983
[GTO]
1 0
 s    8 1.00
                  6665  0.00069158396281299
                  1000  0.0053257961529341
                   228   0.027060721042034
                 64.71    0.10165684614077
                 21.06     0.2745748236174
                 7.495    0.44829431892377
                 2.797    0.28490261071525
                0.5215   0.015194859206082
 s    8 1.00
                  6665  -0.00029326965268655
                  1000  -0.0023180354739745
                   228  -0.011499786038565
                 64.71  -0.046826727009787
                 21.06   -0.12846616875047
                 7.495   -0.30126627246289
                 2.797   -0.25563070233011
                0.5215      1.093793361012
 s    1 1.00
                0.1596                   1
 s    1 1.00
                0.0469                   1
 p    3 1.00
                 9.439   0.056979251590039
                 2.002    0.31320721150073
                0.5456    0.76037674173753
 p    1 1.00
                0.1517                   1
 p    1 1.00
               0.04041                   1
 d    1 1.00
                  0.55                   1
 d    1 1.00
                 0.151                   1

2 0
 s    8 1.00
                  6665  0.00069158396281299
                  1000  0.0053257961529341
                   228   0.027060721042034
                 64.71    0.10165684614077
                 21.06     0.2745748236174
                 7.495    0.44829431892377
                 2.797    0.28490261071525
                0.5215   0.015194859206082
 s    8 1.00
                  6665  -0.00029326965268655
                  1000  -0.0023180354739745
                   228  -0.011499786038565
                 64.71  -0.046826727009787
                 21.06   -0.12846616875047
                 7.495   -0.30126627246289
                 2.797   -0.25563070233011
                0.5215      1.093793361012
 s    1 1.00
                0.1596                   1
 s    1 1.00
                0.0469                   1
 p    3 1.00
                 9.439   0.056979251590039
                 2.002    0.31320721150073
                0.5456    0.76037674173753
 p    1 1.00
                0.1517                   1
 p    1 1.00
               0.04041                   1
 d    1 1.00
                  0.55                   1
 d    1 1.00
                 0.151                   1

3 0
 s    3 1.00
                 13.01   0.033498726389998
                 1.962    0.23480080117413
                0.4446     0.8136829578829
 s    1 1.00
                 0.122                   1
 s    1 1.00
               0.02974                   1
 p    1 1.00
                 0.727                   1
 p    1 1.00
                 0.141                   1

4 0
 s    3 1.00
                 13.01   0.033498726389998
                 1.962    0.23480080117413
                0.4446     0.8136829578829
 s    1 1.00
                 0.122                   1
 s    1 1.00
               0.02974                   1
 p    1 1.00
                 0.727                   1
 p    1 1.00
                 0.141                   1

5 0
 s    3 1.00
                 13.01   0.033498726389998
                 1.962    0.23480080117413
                0.4446     0.8136829578829
 s    1 1.00
                 0.122                   1
 s    1 1.00
               0.02974                   1
 p    1 1.00
                 0.727                   1
 p    1 1.00
                 0.141                   1

6 0
 s    3 1.00
                 13.01   0.033498726389998
                 1.962    0.23480080117413
                0.4446     0.8136829578829
 s    1 1.00
                 0.122                   1
 s    1 1.00
               0.02974                   1
 p    1 1.00
                 0.727                   1
 p    1 1.00
                 0.141                   1

[5d]
[7f]
[9g]

[MO]
 Sym= A
 Ene=               0
 Spin= Alpha
 Occup=    0.90099
   1    -2.8694644629681e-15
   2    -4.0179319476881e-15
   3    1.5008860389503e-13
   4    -5.3396780227197e-14
   5      0.38742783729686
   6    -6.3022238924156e-15
   7    2.5671056219068e-15
   8      0.25656774188393
   9    -1.6751497783317e-13
  10    2.9958846442154e-14
  11     0.032207200515169
  12    7.9757875525879e-16
  13    2.3508937711206e-14
  14    -6.1121674046193e-16
  15    6.8530707794449e-16
  16    9.3168029909042e-16
  17    -1.9104168621591e-15
  18    -0.023802148405186
  19    -2.3878847836431e-14
  20    -6.9478034862499e-15
  21    -7.6311891385239e-17
  22    -2.2607488576215e-14
  23    -0.0088041909506277
  24    7.0359542048246e-16
  25    1.7171652932554e-15
  26    -9.3808956535065e-14
  27    7.6287252868933e-14
  28      0.38742783729687
  29    6.9685641023328e-15
  30    -3.6302831928065e-15
  31      0.25656774188397
  32    -1.7236834822602e-13
  33    -1.8144388932578e-14
  34      0.03220720051519
  35    2.5933503101865e-16
  36    -1.5009729339056e-14
  37    -3.4973983227782e-16
  38    7.0397334398103e-16
  39    4.8865346673705e-16
  40    1.7121854464283e-15
  41     0.023802148405188
  42    3.6864020696052e-14
  43    3.5497597230834e-15
  44    -1.1834053572041e-15
  45    2.820158636527e-14
  46     0.008804190950639
  47    1.8054592511421e-16
  48    3.3327289374432e-14
  49    -1.209303467455e-14
  50     0.013501397694579
  51    8.0485586115219e-16
  52    7.0504558040517e-16
  53     0.010046000755843
  54    -3.3115901986689e-15
  55    -6.3479764259738e-15
  56    -7.2689763599797e-15
  57    -8.9910152455761e-14
  58    -1.6672546821533e-15
  59      0.01350139769458
  60    7.9254862559349e-16
  61    -3.2979219702314e-16
  62     0.010046000755823
  63    -1.8831040880719e-14
  64    1.5765116971439e-14
  65    -4.2275962805132e-15
  66    1.0351266886631e-13
  67    2.2715419897518e-14
  68      0.01350139769458
  69    6.9420670142801e-16
  70    -5.4200581439454e-16
  71      0.01004600075583
  72    -1.7989394002524e-14
  73    2.4093879834249e-14
  74    -1.1657758104964e-15
  75    -1.2129269263105e-13
  76    -1.6235240625506e-14
  77     0.013501397694581
  78    8.3947543760403e-16
  79    5.1702233877826e-16
  80     0.010046000755829
  81    -2.6626656887771e-14
  82    -2.3795237739564e-14
 Sym= A
 Ene=               1
 Spin= Alpha
 Occup=    0.90099
   1    0.0024697498009773
   2     0.098393889835324
   3      0.37850076937495
   4      0.67153290445973
   5    1.5367164339262e-15
   6     0.097673636333225
   7    3.5520068381154e-16
   8    4.2090191939042e-15
   9      0.11892405971858
  10    -1.1257456081989e-13
  11    6.3794710710321e-15
  12      0.27128635433266
  13    -8.2630986281017e-13
  14    -0.0071092093790913
  15    -5.7115269012608e-17
  16    1.1065543216565e-14
  17    -0.005998766694133
  18    2.9147415099054e-16
  19    -0.0031117616326589
  20    -3.4397720543262e-15
  21    -2.4775610096366e-13
  22    -0.010468409679371
  23    -1.9398917251383e-15
  24    0.0024697498009442
  25     0.098393889835285
  26      0.37850076938178
  27      0.67153290438393
  28    -3.1224394869036e-16
  29    -0.097673636333253
  30    -2.3919653055792e-14
  31    -3.9952081010768e-15
  32     -0.11892405970736
  33    9.545315116724e-13
  34    -8.0205921028391e-15
  35     -0.27128635435685
  36    9.2464389028802e-13
  37    -0.0071092093790155
  38    -1.8382409524407e-16
  39    -1.3606882108217e-15
  40    -0.0059987666942446
  41    1.0591086200042e-16
  42    -0.0031117616365002
  43    3.202945197416e-15
  44    -3.7566573346293e-13
  45    -0.010468409680965
  46    -1.8472675224493e-15
  47    0.0032092573238855
  48     -0.19608559825729
  49     -0.54244124361628
  50    2.4324988670579e-16
  51    -0.001034845561348
  52    -0.011519271745748
  53    1.3368619490854e-15
  54     0.017134788167649
  55    0.00010901529388334
  56    0.0032092573239565
  57      -0.1960855982499
  58     -0.54244124362544
  59    -2.3801460237356e-16
  60    0.0010348455613144
  61    -0.011519271745708
  62    -2.3750730418691e-15
  63     -0.01713478816592
  64    0.00010901529367631
  65    0.0032092573238652
  66     -0.19608559825847
  67     -0.54244124361752
  68    -2.5775946528007e-16
  69    -0.0010348455613527
  70     0.011519271745745
  71    -4.1630590019108e-16
  72     0.017134788167727
  73    -0.00010901529406692
  74    0.0032092573240255
  75     -0.19608559824621
  76     -0.54244124362425
  77    -7.3308262480894e-17
  78    0.0010348455613153
  79     0.011519271745709
  80    2.1311842845213e-15
  81    -0.017134788165398
  82    -0.00010901529262356
 Sym= A
 Ene=               2
 Spin= Alpha
 Occup=    0.00024
   1    1.2411372215007e-14
   2    3.0423838728473e-14
   3    -7.5530146370369e-13
   4    -3.3084584551222e-13
   5     -0.54831770124834
   6    9.9220631195026e-15
   7    -1.2850307710074e-14
   8     -0.51867095196345
   9    7.0249531936701e-13
  10    4.4666300781648e-16
  11     0.023853854872461
  12    1.6242520712792e-13
  13    -5.7819018836893e-14
  14    1.8444008371178e-15
  15    -2.6282584037579e-15
  16    -2.2938759187812e-15
  17    1.0029130681354e-14
  18     0.013605491699626
  19    1.1210971449354e-13
  20    -1.2091933686771e-14
  21    2.5218515627783e-14
  22    1.1316446264887e-13
  23     0.048751196041658
  24    -2.0043037769319e-14
  25    -3.286905466478e-14
  26    7.9971930938278e-13
  27    3.8835382529314e-13
  28      0.54831770124838
  29    1.0885121545724e-14
  30    -8.4309284882222e-15
  31      0.51867095196339
  32    6.8386732289062e-13
  33    -8.3090201083007e-14
  34    -0.023853854872467
  35    1.3893194445709e-13
  36    2.0518878770853e-14
  37    4.514974643737e-16
  38    1.4752418099016e-15
  39    8.1238079454862e-16
  40    -1.1572046805559e-14
  41     0.013605491699623
  42    -1.2663131413018e-13
  43    1.7482356383602e-14
  44    4.0419648437902e-14
  45    -1.140479993891e-13
  46     0.048751196041626
  47    1.2739982094869e-15
  48    -2.6962534834916e-13
  49    -9.2744821171601e-15
  50    -0.022926633196776
  51    -4.608344764132e-15
  52    -6.3165450850752e-15
  53    -0.0069003566174951
  54    3.4334059127984e-14
  55    7.2939499794782e-14
  56    -9.608093102407e-15
  57    3.5283345688046e-13
  58    3.3898592785629e-14
  59     0.022926633196793
  60    -4.1788119793848e-15
  61    5.9265742304761e-15
  62    0.0069003566175111
  63    6.0076600113362e-14
  64    -9.0440609291954e-14
  65    1.7921164971549e-14
  66    -1.6845792226259e-13
  67    -1.1692501589706e-13
  68    -0.022926633196778
  69    -3.9943850345806e-15
  70    4.6308780706463e-15
  71    -0.0069003566174869
  72    3.294896321337e-14
  73    -9.9058096490883e-15
  74    1.9522276877783e-15
  75    3.5407636467363e-14
  76    6.0881574708394e-14
  77     0.022926633196796
  78    -5.0740476314349e-15
  79    -4.7656233952181e-15
  80    0.0069003566175146
  81    2.3604524721694e-14
  82    -3.3249214895578e-14
 Sym= A
 Ene=               3
 Spin= Alpha
 Occup=    0.00024
   1    -0.057071314433873
   2      -0.4527389455694
   3      -1.2481224786738
   4       1.5284691999433
   5    -4.8098725909818e-15
   6     -0.32399465373704
   7    -1.0702940653131e-14
   8    1.7140796129931e-14
   9      0.47741178418294
  10    1.2100609276923e-13
  11    -3.215134750647e-14
  12      -0.3328455310168
  13    4.5099453834852e-13
  14     0.034282709655712
  15    1.0303196718668e-15
  16    -1.3761778832892e-14
  17    0.0074359017254443
  18    -4.2225553061714e-15
  19      0.19984673540756
  20    1.7309521717716e-15
  21    3.1945589323832e-13
  22      0.19202565637112
  23    -2.4511714431008e-15
  24     0.057071314433793
  25       0.4527389455693
  26       1.2481224786742
  27      -1.5284691999411
  28    2.6851809727302e-14
  29     -0.32399465373711
  30    4.8341836033641e-16
  31    1.2413623138678e-14
  32      0.47741178418266
  33    -7.9846915285326e-15
  34    1.0866348920122e-14
  35     -0.33284553101794
  36    -3.7347635884147e-13
  37    -0.034282709655705
  38    2.3675895843802e-15
  39    -1.4234539387911e-14
  40    -0.0074359017254474
  41    1.4382486244618e-17
  42     -0.19984673540781
  43    -1.3636830686634e-14
  44    3.267386661779e-13
  45     -0.19202565637158
  46    -4.2218693813567e-15
  47    -0.029992143216787
  48     0.030300444712856
  49      0.24944547038083
  50    2.0024109385724e-16
  51     0.004941353359843
  52      0.01347749934758
  53    7.523842269537e-16
  54     0.040220672636067
  55    -0.012302758585441
  56     0.029992143216826
  57    -0.030300444713872
  58      -0.2494454703814
  59    -7.0649036414057e-16
  60    0.0049413533598333
  61    -0.013477499347561
  62     5.44595249962e-15
  63     0.040220672636214
  64     0.012302758585775
  65    -0.029992143216757
  66     0.030300444714357
  67      0.24944547038145
  68    2.3294743026226e-15
  69    0.0049413533598545
  70    -0.013477499347584
  71    -4.1686150826675e-15
  72      0.04022067263594
  73     0.012302758585812
  74     0.029992143216773
  75    -0.030300444715007
  76     -0.24944547038194
  77    1.5508586706722e-15
  78    0.0049413533598471
  79     0.013477499347565
  80    -1.1791477699516e-14
  81     0.040220672636191
  82    -0.012302758586071
 Sym= A
 Ene=               4
 Spin= Alpha
 Occup=    0.00015
   1    -0.054407508232271
   2      0.20411603141393
   3      0.09775678479506
   4    -0.050048375161364
   5    1.502053551672e-14
   6     -0.12435124629977
   7    -2.3028318370525e-14
   8    8.9007870397876e-15
   9     -0.14216480346241
  10    -1.0881535195213e-13
  11    -3.3090764061371e-15
  12    -0.019613715659886
  13    7.1604337440414e-14
  14    -0.038861700807507
  15    6.0301215674571e-16
  16    -4.6420651356129e-15
  17     0.033642642065619
  18    -1.3930858939599e-15
  19    -0.068679836729578
  20    1.4445858359566e-15
  21    5.6686391248725e-14
  22     0.047955591350164
  23    -1.5226021204366e-15
  24    -0.054407508232199
  25      0.20411603141421
  26     0.097756784791612
  27    -0.050048375161123
  28    -1.0722820733117e-14
  29      0.12435124629965
  30    1.7528019582432e-14
  31    -1.3219297736737e-14
  32      0.14216480345958
  33    -5.1572753835318e-16
  34    2.1801553765342e-15
  35      0.01961371565996
  36    -1.1323328103811e-13
  37    -0.038861700807509
  38    -2.2792175514892e-16
  39    -2.5958890501728e-15
  40     0.033642642065665
  41    1.3138076910257e-16
  42    -0.068679836728997
  43    -5.3605234967027e-16
  44    8.0974940866677e-14
  45     0.047955591350706
  46    -1.8513770588243e-15
  47        0.075109233873
  48      0.12002098445753
  49     0.011127016748216
  50    5.9770422395939e-16
  51    -0.0086422594983494
  52    -0.011797554954584
  53    1.043396293099e-16
  54    -0.012883757854016
  55    -0.019106137102562
  56     0.075109233873151
  57      0.12002098445691
  58     0.011127016748434
  59    -1.0716890719285e-15
  60    0.0086422594983691
  61    -0.011797554954621
  62    -2.1482890536286e-15
  63     0.012883757853808
  64    -0.019106137102544
  65     0.075109233873038
  66      0.12002098445751
  67     0.011127016748316
  68    1.8993329886754e-16
  69    -0.0086422594983482
  70     0.011797554954585
  71    1.2656541538948e-15
  72    -0.012883757853971
  73     0.019106137102544
  74     0.075109233873118
  75      0.12002098445658
  76     0.011127016748246
  77    -5.5610971757583e-16
  78    0.0086422594983697
  79      0.01179755495462
  80    -1.6827345095394e-15
  81     0.012883757853811
  82     0.019106137102461
 Sym= A
 Ene=               5
 Spin= Alpha
 Occup=    0.00015
   1    2.0446891073914e-15
   2    1.3231450957941e-14
   3    1.4943005668792e-13
   4    -1.27323426656e-13
   5      0.20979114320004
   6    1.951387971741e-14
   7    -2.3734311463136e-15
   8      0.53608857061281
   9    -1.4432197201119e-13
  10    1.400224369811e-13
  11      -0.4984530197153
  12    3.6947015868258e-14
  13    -2.511333648602e-14
  14    -8.3662673110551e-16
  15    -4.6287066754354e-16
  16    1.9809166622177e-15
  17    -3.9782018776836e-16
  18    0.0083086816804881
  19    -3.9166634416634e-14
  20    8.3423091051708e-16
  21    -2.9036984996764e-14
  22    -2.4339431821721e-14
  23      0.20833345188523
  24    7.0329870529448e-15
  25    1.2495169635618e-14
  26    -1.1043245746959e-13
  27    9.9791904228951e-14
  28      0.20979114319991
  29    1.4113207467818e-14
  30    1.2793664272397e-15
  31      0.53608857061272
  32    -1.6376730175967e-13
  33    -3.7922646932121e-14
  34     -0.49845301971704
  35    1.7871359857415e-14
  36    6.1853408312078e-14
  37    1.7272074481844e-15
  38    4.9853749101239e-15
  39    2.2828511270189e-15
  40    4.2510587942886e-15
  41    -0.0083086816804334
  42    3.5725147957367e-14
  43    -2.7347370895363e-14
  44    -4.7484070570329e-14
  45    2.3724052332219e-14
  46     -0.20833345188566
  47    -1.2362987968168e-15
  48    -4.5732285759645e-14
  49    8.0594724162543e-15
  50     0.017252257363578
  51    2.2620156833247e-15
  52    -5.4147985177233e-17
  53     -0.25136948036222
  54    1.8869400606017e-14
  55    2.6738588080106e-14
  56    -8.4446934028085e-15
  57    -1.2760659095407e-13
  58    -3.0537413962928e-14
  59     0.017252257363607
  60    1.9401513153971e-15
  61    -1.0397223122676e-15
  62     -0.25136948036246
  63    -4.5490916073614e-15
  64    3.1037256175416e-14
  65    2.853763333019e-15
  66    1.8019748028231e-13
  67    -1.5277887026481e-14
  68     0.017252257363576
  69    -3.0074941245982e-16
  70    -2.4168734288345e-16
  71     -0.25136948036221
  72    -5.4314719122253e-14
  73    3.8618315871053e-14
  74    -2.6927035220355e-15
  75    -4.828055360834e-14
  76    7.1876994711534e-14
  77     0.017252257363575
  78    3.9827491253248e-17
  79    1.4149355767169e-15
  80     -0.25136948036241
  81    -3.1751597580726e-14
  82    -8.7154439005754e-15
 Sym= A
 Ene=               6
 Spin= Alpha
 Occup=    0.00006
   1     0.015979603659977
   2     -0.15351443041233
   3     -0.25730098184862
   4      0.51546066136594
   5    -1.1761983456506e-14
   6     -0.17718221453911
   7    1.3971643673542e-13
   8    -2.1640686560564e-14
   9      0.19682111793236
  10      1.1636681774e-13
  11    2.9348962936024e-17
  12     -0.11190669525281
  13    3.9633724932229e-13
  14    -0.045848442087536
  15    -5.1375684073761e-15
  16    8.6655081088422e-15
  17     0.062449558847648
  18    7.0625097600705e-16
  19      0.09450569139165
  20    -5.9802371701879e-15
  21    2.0276642121743e-13
  22        0.022375767242
  23    1.6376985673487e-15
  24    -0.015979603660069
  25      0.15351443041185
  26      0.25730098184951
  27     -0.51546066136509
  28    2.9292347730662e-14
  29     -0.17718221453924
  30    -1.0426016692333e-13
  31    8.1373964711513e-15
  32      0.19682111793207
  33    -3.2609342108495e-13
  34    -4.4900227079692e-15
  35     -0.11190669525296
  36    -4.3854148569443e-13
  37     0.045848442087591
  38    -4.9070929684713e-15
  39    1.2608907461797e-14
  40    -0.062449558847692
  41    2.4496667528275e-15
  42     -0.09450569139159
  43    -1.108642313411e-14
  44    2.6165085877491e-13
  45    -0.022375767241914
  46    -2.2928935862237e-15
  47     -0.21524646605506
  48     -0.26721046370381
  49     0.012141948804951
  50    -2.1568678840006e-15
  51    0.0052136904370981
  52     0.022818028940984
  53    -6.1625907865388e-16
  54     0.040779293836497
  55     0.025577521932361
  56      0.21524646605504
  57      0.26721046370347
  58    -0.012141948805126
  59    1.0328031055746e-15
  60    0.0052136904370837
  61    -0.022818028940975
  62    5.2863578868758e-15
  63     0.040779293836422
  64    -0.025577521932286
  65     -0.21524646605529
  66     -0.26721046370298
  67     0.012141948805497
  68    -1.2264540283034e-15
  69    0.0052136904371151
  70     -0.02281802894099
  71    -1.9016439694628e-15
  72      0.04077929383642
  73    -0.025577521932122
  74      0.21524646605519
  75      0.26721046370201
  76    -0.012141948805727
  77    2.1430187445281e-15
  78    0.0052136904370972
  79     0.022818028940978
  80    -5.8851909115919e-16
  81     0.040779293836277
  82     0.025577521931868
 Sym= A
 Ene=               7
 Spin= Alpha
 Occup=    0.00006
   1    -4.1481204101221e-15
   2    -1.79546712208e-14
   3    1.1215732557559e-13
   4    1.3235481444543e-14
   5       0.5870424207446
   6    -1.1495442945675e-14
   7    -4.1624565272949e-15
   8    -0.090413418698044
   9    -1.4144564741354e-13
  10    -1.428461473554e-13
  11      0.97492755642317
  12    -8.032003202954e-14
  13    4.390123678765e-14
  14    1.5813702826563e-15
  15    -8.6461631479943e-14
  16    -1.5686543668168e-15
  17    6.4484729731065e-16
  18      0.12771275416871
  19    -2.4647772674522e-14
  20    3.4016626314458e-13
  21    2.9032397748074e-14
  22    -1.9492421226728e-14
  23    -0.082024280176868
  24    1.0978402267068e-14
  25     3.95141629745e-14
  26    -1.0528715931361e-13
  27    -1.0843352887465e-13
  28     -0.58704242074457
  29    -2.9358517515891e-14
  30    -1.7166819976545e-14
  31     0.090413418697701
  32    -1.4287556522849e-13
  33    1.7444552740364e-13
  34     -0.97492755642291
  35    -3.9457005241204e-14
  36    5.0727128193792e-14
  37    -5.9446511260544e-15
  38    8.3911905602971e-14
  39    -5.6354284297847e-16
  40    -6.534016823514e-16
  41       0.1277127541687
  42    2.6749070860268e-14
  43    -3.0969807729378e-13
  44    2.3948297039948e-14
  45    2.3633925127936e-14
  46    -0.082024280176721
  47    -4.7114548434795e-15
  48    1.8649710667803e-13
  49    2.3622039969436e-14
  50    -0.031048617979611
  51    -7.2022039081327e-16
  52    1.6212537352718e-15
  53      0.10489189521359
  54    -4.8890191338897e-14
  55    -5.3404227564583e-14
  56    -1.0818213121532e-14
  57    -2.6264919896996e-13
  58    -3.1664370743101e-14
  59     0.031048617979632
  60    -1.0066274908297e-15
  61    -1.5692092429934e-15
  62     -0.10489189521334
  63    -5.8649224495031e-14
  64    9.1291255867266e-14
  65    6.1144627916014e-15
  66    -2.8037092468078e-14
  67    6.4098879322555e-14
  68    -0.031048617979641
  69    2.5524314697601e-15
  70    -6.3898462699923e-16
  71      0.10489189521376
  72    1.9133859347377e-14
  73    -1.7485176304248e-14
  74    1.2030275507989e-14
  75    1.0333947598498e-13
  76    3.0767933605037e-14
  77     0.031048617979647
  78    2.6207936763103e-15
  79    3.3940725091883e-15
  80     -0.10489189521341
  81    1.7227109283452e-14
  82    5.9601079102006e-14
 Sym= A
 Ene=               8
 Spin= Alpha
 Occup=    0.00005
   1      0.19115226171732
   2      0.61150853087009
   3      0.90772235250022
   4      0.27163659230239
   5    -2.080408751477e-14
   6     0.022413501568423
   7    1.7217763646927e-15
   8    2.0297721979201e-14
   9      0.58812278199713
  10    -2.6674254947002e-13
  11    1.3515607504609e-14
  12      0.16527464129935
  13    -7.5698919730674e-13
  14    -0.066664985975184
  15    1.6098672496995e-15
  16    4.8925908612325e-15
  17      0.10554827115443
  18    -5.1603172247709e-15
  19      0.21301386245203
  20    -1.0313185233815e-14
  21    -3.7136317929891e-13
  22     -0.30643013115087
  23    -1.1251335343394e-14
  24      0.19115226171645
  25      0.61150853086877
  26      0.90772235254277
  27      0.27163659227984
  28    -1.0675585968762e-14
  29    -0.022413501568526
  30    -4.2800041958957e-15
  31    -1.1590732043355e-14
  32     -0.58812278195638
  33    -7.1627764558136e-14
  34    -1.2529690200481e-14
  35     -0.16527464130383
  36    6.0193507790716e-13
  37    -0.066664985975053
  38    -5.202839150815e-15
  39    7.8411821060849e-15
  40      0.10554827115387
  41    7.2954393022399e-15
  42      0.21301386244314
  43    6.1695018285994e-15
  44    -2.98894891097e-13
  45     -0.30643013115765
  46    1.4740810130162e-15
  47    -0.010186020259261
  48     -0.78059909679254
  49    -0.058782775501745
  50    -1.2302074540164e-15
  51    -0.010723826316855
  52    0.0012677905212653
  53    3.5105470436943e-15
  54     0.056619645144061
  55      0.19204823985586
  56    -0.010186020258967
  57     -0.78059909677716
  58    -0.058782775503465
  59    1.0199913895044e-15
  60     0.010723826316641
  61    0.0012677905215245
  62    7.5621332616122e-15
  63     -0.05661964514068
  64      0.19204823985421
  65    -0.010186020259315
  66     -0.78059909679436
  67    -0.058782775502907
  68    -1.4610442802286e-15
  69    -0.010723826316855
  70    -0.0012677905212689
  71    -4.6669609590418e-15
  72     0.056619645144136
  73      -0.1920482398563
  74    -0.010186020258942
  75     -0.78059909677624
  76     -0.05878277550265
  77    5.0143030921899e-16
  78     0.010723826316631
  79    -0.0012677905215241
  80    1.1841977935489e-14
  81    -0.056619645140724
  82     -0.19204823985401
 Sym= A
 Ene=               9
 Spin= Alpha
 Occup=    0.00005
   1    3.3487032098304e-15
   2    -2.6582266892289e-15
   3    -2.3926159659095e-13
   4    2.6667761069827e-13
   5     -0.47013998853247
   6    -1.0318820694817e-14
   7    -1.575769554563e-15
   8     -0.12121260546394
   9    2.6306033449914e-13
  10    -7.4455477358506e-15
  11     -0.11325704282821
  12    -5.6114263289743e-14
  13    -1.8396682964501e-14
  14    8.2696782842096e-16
  15    1.9057630475047e-15
  16    -8.4880021119933e-17
  17    3.6311455496961e-15
  18     0.020581800113889
  19    4.7665855294182e-14
  20    1.4789626265268e-15
  21    -3.9193309248729e-15
  22    3.9925992998029e-14
  23     0.038251720818163
  24    -9.373498421477e-16
  25    8.4328430298971e-15
  26    2.0265644977307e-13
  27    -2.9794687710083e-13
  28     -0.47013998853266
  29    -5.2940604048385e-15
  30    3.6751807241574e-16
  31     -0.12121260546393
  32    2.6710936798416e-13
  33    -1.1514387813308e-14
  34     -0.11325704282921
  35    -6.1784679984011e-14
  36    9.018966555342e-15
  37    -1.356239025171e-16
  38    5.4065882634553e-15
  39    5.4802850931336e-16
  40    -3.1988006116425e-15
  41    -0.020581800113834
  42    -6.3868537815288e-14
  43    -2.5462089104604e-14
  44    -1.7523828120018e-15
  45    -4.4588192304493e-14
  46    -0.038251720818364
  47    -4.1864218510013e-15
  48    -1.0422434072709e-13
  49    2.2299105034115e-14
  50    -0.0067805969853427
  51    -1.1802996451071e-15
  52    -1.024520328756e-15
  53    -0.011997205243965
  54    1.9824537647917e-14
  55    1.7742166300075e-14
  56    6.0325557164954e-15
  57    1.6024816454504e-13
  58    -9.6371807848354e-16
  59    -0.0067805969853241
  60    -5.976058730841e-16
  61    -6.18322890317e-16
  62    -0.011997205244023
  63    3.7174407840126e-14
  64    -2.556047639048e-14
  65    -3.5190544406057e-15
  66    -1.3836504099608e-13
  67    5.7296372773142e-15
  68    -0.0067805969853434
  69    -1.5940138037314e-15
  70    1.4266356188016e-15
  71    -0.011997205243967
  72    2.1690575396853e-14
  73    -2.7846511752915e-14
  74     3.96122908609e-15
  75    1.3746675714855e-13
  76    -1.0487738309186e-14
  77    -0.0067805969853279
  78    -1.2376730551563e-15
  79    2.0788720865074e-16
  80    -0.011997205244051
  81    2.8284327887881e-14
  82    2.2212597975941e-14
 Sym= A
 Ene=              10
 Spin= Alpha
 Occup=    0.00003
   1    -2.0453413338148e-14
   2    -1.8848564097396e-14
   3    1.340946244206e-12
   4    -1.039246872616e-12
   5      0.61672581212621
   6    1.1579339990515e-15
   7    -9.3349167025707e-15
   8     -0.37381435701665
   9    -1.4624060187457e-12
  10    1.0574671978954e-13
  11     -0.20374008903745
  12     2.08126490404e-13
  13    -2.8914137850416e-14
  14    -3.4001317299541e-15
  15    2.1547698155558e-14
  16    1.101294705817e-15
  17    -2.7444434443194e-14
  18     -0.10196338419209
  19    -2.6478396550665e-13
  20    2.6750811417512e-15
  21    2.9726431121073e-14
  22    -2.0360697095309e-13
  23      0.25947971777312
  24    1.9899540701533e-14
  25    2.3390886253761e-14
  26    -1.1980974988043e-12
  27    1.071072721242e-12
  28      0.61672581212611
  29    -3.0002072325035e-14
  30    -1.4757673407839e-16
  31     -0.37381435701721
  32    -1.4831262519669e-12
  33    1.4283316431307e-13
  34     -0.20374008903728
  35    2.2766600269518e-13
  36    1.132410601764e-13
  37    -1.1859536321384e-14
  38    1.5330265012001e-14
  39     -6.3582473755e-15
  40    8.1015843793645e-15
  41      0.10196338419196
  42    3.1748985042783e-13
  43    5.2040071405656e-14
  44    -1.5298576375473e-14
  45    2.2428223567089e-13
  46     -0.25947971777317
  47    2.2884337469484e-15
  48    4.8305228710013e-13
  49    -1.2650631984755e-14
  50     0.029609852481289
  51    8.7633678678278e-15
  52    5.3737082435895e-15
  53     0.036855618248187
  54    -8.8628459545299e-14
  55    -6.6089536606543e-14
  56    -7.0913638114578e-15
  57    -9.2195907886676e-13
  58    -7.79051806524e-14
  59     0.029609852481335
  60    1.106570339182e-14
  61    -1.2201986142169e-14
  62     0.036855618248376
  63    -1.8887095454815e-13
  64    1.6643658643622e-13
  65    2.5652582914509e-14
  66    8.2871229785039e-13
  67    -5.7849465495789e-14
  68     0.029609852481288
  69    6.0524633405087e-15
  70    -3.9194726477596e-15
  71     0.036855618248189
  72    -1.3574369310215e-13
  73    1.6559418362969e-13