60
 energy: -128.463526731973 gnorm: 0.000781090301 xtb: 6.7.1 (edcfbbe)
C            0.72073238529030       -0.99197818866343        3.30404097414454
C           -0.72073238529008       -0.99197818866391        3.30404097414462
C           -1.41471363252317       -1.94717466371143        2.57433350976133
C           -0.69398623886626       -2.93918470544705        1.81651200667209
C            0.69398623886639       -2.93918470544742        1.81651200667277
C            1.41471363252323       -1.94717466371143        2.57433350976163
C            1.16617020954638        0.37893748148248        3.30405271930308
C           -0.00000000000020        1.22621107967688        3.30407596600167
C           -1.16617020954625        0.37893748148205        3.30405271930306
C           -2.28906587690690        0.74378160030098        2.57434339632730
C           -2.58087462028609       -1.56826875850749        1.81649762252305
C           -1.41471015117340       -3.17337628850502        0.59032047145795
C           -0.72073280915043       -3.39888154540870       -0.59037684576902
C            0.72073280914991       -3.39888154540819       -0.59037684576847
C            1.41471015117328       -3.17337628850488        0.59032047145825
C            2.58088482400625       -2.32611487421170        0.59033164959660
C            2.58087462028606       -1.56826875850730        1.81649762252323
C            3.00977538479803       -0.24822356184540        1.81649235098435
C            2.28906587690711        0.74378160030136        2.57434339632742
C            0.00000000000042        2.40690790941374        2.57439642784152
C            1.16617846435328        2.78582306164068        1.81658442292746
C            2.28907371374358        1.96997818833205        1.81654488249564
C            3.00979673376226        1.73578416419122        0.59034771823698
C            3.45523288169625        0.36486527205158        0.59033326270643
C            3.45523288169641       -0.36486527205145       -0.59033326270632
C            3.00979673376192       -1.73578416419094       -0.59034771823683
C            2.28907371374301       -1.96997818833169       -1.81654488249542
C            1.16617846435249       -2.78582306163990       -1.81658442292699
C           -2.58088482400640       -2.32611487421190        0.59033164959643
C           -1.16617020954638       -0.37893748148248       -3.30405271930308
C           -2.28906587690711       -0.74378160030136       -2.57434339632742
C           -3.00977538479803        0.24822356184540       -1.81649235098435
C           -2.58087462028606        1.56826875850730       -1.81649762252322
C           -1.41471363252323        1.94717466371143       -2.57433350976162
C            0.72073238529009        0.99197818866391       -3.30404097414462
C            1.16617020954625       -0.37893748148205       -3.30405271930306
C            0.00000000000020       -1.22621107967688       -3.30407596600167
C           -0.00000000000042       -2.40690790941374       -2.57439642784152
C           -1.16617846435328       -2.78582306164067       -1.81658442292746
C           -2.28907371374358       -1.96997818833205       -1.81654488249564
C           -3.45523288169625       -0.36486527205158       -0.59033326270643
C           -3.45523288169641        0.36486527205145        0.59033326270632
C           -3.00979673376192        1.73578416419094        0.59034771823683
C           -2.58088482400625        2.32611487421170       -0.59033164959660
C           -1.41471015117328        3.17337628850488       -0.59032047145825
C           -0.69398623886638        2.93918470544742       -1.81651200667277
C            0.69398623886626        2.93918470544705       -1.81651200667210
C            1.41471363252317        1.94717466371143       -2.57433350976133
C            2.28906587690691       -0.74378160030098       -2.57434339632730
C            3.00977538479806        0.24822356184560       -1.81649235098422
C            2.58087462028608        1.56826875850749       -1.81649762252305
C            2.58088482400640        2.32611487421190       -0.59033164959643
C            1.41471015117339        3.17337628850502       -0.59032047145795
C            0.72073280915043        3.39888154540870        0.59037684576902
C           -0.72073280914991        3.39888154540819        0.59037684576847
C           -1.16617846435249        2.78582306163990        1.81658442292699
C           -2.28907371374301        1.96997818833169        1.81654488249542
C           -3.00979673376226       -1.73578416419122       -0.59034771823698
C           -3.00977538479806       -0.24822356184560        1.81649235098422
C           -0.72073238529030        0.99197818866343       -3.30404097414454
