
                                 *****************
                                 * O   R   C   A *
                                 *****************

                                            #,                                       
                                            ###                                      
                                            ####                                     
                                            #####                                    
                                            ######                                   
                                           ########,                                 
                                     ,,################,,,,,                         
                               ,,#################################,,                 
                          ,,##########################################,,             
                       ,#########################################, ''#####,          
                    ,#############################################,,   '####,        
                  ,##################################################,,,,####,       
                ,###########''''           ''''###############################       
              ,#####''   ,,,,##########,,,,          '''####'''          '####       
            ,##' ,,,,###########################,,,                        '##       
           ' ,,###''''                  '''############,,,                           
         ,,##''                                '''############,,,,        ,,,,,,###''
      ,#''                                            '''#######################'''  
     '                                                          ''''####''''         
             ,#######,   #######,   ,#######,      ##                                
            ,#'     '#,  ##    ##  ,#'     '#,    #''#        ,####,   ,####,        
            ##       ##  ##   ,#'  ##            #'  '#       #'       #'  '#        
            ##       ##  #######   ##           ,######,      #####,   #    #        
            '#,     ,#'  ##    ##  '#,     ,#' ,#      #,     #,   #   #,  ,#        
             '#######'   ##     ##  '#######'  #'      '#     '####' # '####'        



                #########################################################
                #                        -***-                          #
                #          Department of theory and spectroscopy        #
                #                                                       #
                #                      Frank Neese                      #
                #                                                       #
                #     Directorship, Architecture, Infrastructure        #
                #                    SHARK, DRIVERS                     #
                #        Core code/Algorithms in most modules           #
                #                                                       #
                #        Max Planck Institute fuer Kohlenforschung      #
                #                Kaiser Wilhelm Platz 1                 #
                #                 D-45470 Muelheim/Ruhr                 #
                #                      Germany                          #
                #                                                       #
                #                  All rights reserved                  #
                #                        -***-                          #
                #########################################################


                         Program Version 6.0.1  -  RELEASE   -


 With contributions from (in alphabetic order):
[Max-Planck-Institut fuer Kohlenforschung]                               
  Daniel Aravena         : Magnetic Suceptibility                        
  Michael Atanasov       : Ab Initio Ligand Field Theory (pilot matlab implementation)
  Alexander A. Auer      : GIAO ZORA, VPT2 properties, NMR spectrum      
  Ute Becker             : All parallelization in ORCA, NUMFREQ, NUMCALC 
  Giovanni Bistoni       : ED, misc. LED, open-shell LED, HFLD           
  Martin Brehm           : Molecular dynamics                            
  Dmytro Bykov           : pre 5.0 version of the SCF Hessian            
  Marcos Casanova-Páez   : Triplet and SCS-CIS(D). UHF-(DLPNO)-IP/EA/STEOM-CCSD. UHF-CVS-IP/STEOM-CCSD   
  Vijay G. Chilkuri      : MRCI spin determinant printing, contributions to CSF-ICE 
  Pauline Colinet        : FMM embedding                                 
  Dipayan Datta          : RHF DLPNO-CCSD density                        
  Achintya Kumar Dutta   : EOM-CC, STEOM-CC                              
  Nicolas Foglia         : Exact transition moments, OPA infrastructure, MCD improvements    
  Dmitry Ganyushin       : Spin-Orbit,Spin-Spin,Magnetic field MRCI      
  Miquel Garcia-Rates    : C-PCM and meta-GGA Hessian, CCSD/C-PCM, Gaussian charge scheme 
  Tiago L. C. Gouveia    : GS-ROHF, GS-ROCIS                             
  Yang Guo               : DLPNO-NEVPT2, F12-NEVPT2, CIM, IAO-localization        
  Andreas Hansen         : Spin unrestricted coupled pair/coupled cluster methods 
  Ingolf Harden          : AUTO-CI MPn and infrastructure                
  Benjamin Helmich-Paris : MC-RPA, TRAH-(SCF,CASSCF), AVAS, COSX integrals, SCF dyn. polar. 
  Lee Huntington         : MR-EOM, pCC                                   
  Robert Izsak           : Overlap fitted RIJCOSX, COSX-SCS-MP3, EOM     
  Riya Kayal             : Wick's Theorem for AUTO-CI, AUTO-CI UHF-CCSDT 
  Emily Kempfer          : AUTO-CI, RHF CISDT and CCSDT                  
  Christian Kollmar      : KDIIS, OOCD, Brueckner-CCSD(T), CCSD density, CASPT2, CASPT2-K, improved NEVPT2 
  Axel Koslowski         : Symmetry handling                             
  Simone Kossmann        : meta-GGA functionals, TD-DFT gradient, OOMP2, (MP2 Hessian; deprecated post 5.0) 
  Lucas Lang             : DCDCAS                                        
  Marvin Lechner         : AUTO-CI (C++ implementation), FIC-MRCC        
  Spencer Leger          : CASSCF response                               
  Dagmar Lenk            : GEPOL surface, SMD, ORCA-2-JSON               
  Dimitrios Liakos       : Extrapolation schemes; Compound Job, initial MDCI parallelization 
  Dimitrios Manganas     : Further ROCIS development; embedding schemes. LFT, Crystal Embedding 
  Dimitrios Pantazis     : SARC Basis sets                               
  Anastasios Papadopoulos: AUTO-CI, single reference methods and gradients 
  Taras Petrenko         : pre 6.0 DFT Hessian and TD-DFT gradient, (ASA, deprecated), ECA, 1-Electron XAS/XES, NRVS 
  Peter Pinski           : DLPNO-MP2, DLPNO-MP2 Gradient                 
  Christoph Reimann      : Effective Core Potentials                     
  Marius Retegan         : Local ZFS, SOC                                
  Christoph Riplinger    : Optimizer, TS searches, QM/MM, DLPNO-CCSD(T), (RO)-DLPNO pert. Triples 
  Michael Roemelt        : Original ROCIS implementation                 
  Masaaki Saitow         : Open-shell DLPNO-CCSD energy and density      
  Barbara Sandhoefer     : DKH picture change effects                    
  Kantharuban Sivalingam : CASSCF convergence/infrastructure, NEVPT2 and variants, FIC-MRCI 
  Bernardo de Souza      : ESD, SOC TD-DFT                               
  Georgi L. Stoychev     : AutoAux, RI-MP2 NMR, DLPNO-MP2 response, X2C  
  Van Anh Tran           : RI-MP2 g-tensors                              
  Willem Van den Heuvel  : Paramagnetic NMR                              
  Zikuan Wang            : NOTCH, Electric field optimization            
  Frank Wennmohs         : Technical directorship and infrastructure     
  Hang Xu                : AUTO-CI-Response properties                   
                                                                         
[FACCTs GmbH]                                                            
  Markus Bursch, Miquel Garcia-Rates, Christoph Riplinger, Bernardo de Souza, Georgi L. Stoychev 
                                                                 
  APM, Basis sets (HGBS, AHGBS, def-TZVP (Ac-Lr), def2-XVPD (La-Lu)), CI-OPT, improved COSX, DLPNO-Multilevel,           
  DOCKER, DRACO, updates on ESD, GOAT, IRC, LR-CPCM, MBIS, meta-GGA TD-DFT gradient, ML-optimized integration grids, 
  MM, NACMEs, nearIR, NEB, NEB-TS, NL-DFT gradient (VV10), 2- and 3-layer-ONIOM, interface openCOSMO-RS, QMMM,   
  Crystal-QMMM, SF, symmetry and pop. for TD-DFT, r2SCAN hybrids, SOLVATOR                                   
                                                                         
[Other institutions]                                                     
  V. Asgeirsson          : NEB                                           
  Christoph Bannwarth    : sTDA-DFT, sTD-DFT, PBEh-3c, B97-3c, D3        
  Sebastian Ehlert       : rSCAN, r2SCAN, r2SCAN-3c, D4, dhf basis sets  
  Marvin Friede          : D4 for Fr, Ra, Ac-Lr                          
  Lars Goerigk           : TD-DFT with DH, B97 family of functionals     
  Stefan Grimme          : VdW corrections, initial TS optimization, DFT functionals, gCP, sTDA/sTD-DF 
  Waldemar Hujo          : DFT-NL                                        
  H. Jonsson             : NEB                                           
  Holger Kruse           : gCP                                           
  Marcel Mueller         : wB97X-3c, vDZP basis set                      
  Hagen Neugebauer       : wr2SCAN                                       
  Tobias Risthaus        : range-separated hybrid DFT                    
  Lukas Wittmann         : regularized MP2, r2SCAN double-hybrids, wr2SCAN        
                                                                         
We gratefully acknowledge several colleagues who have allowed us to      
interface, adapt or use parts of their codes:                            
  Ed Valeev, F. Pavosevic, A. Kumar             : LibInt (2-el integral package), F12 methods 
  Garnet Chan, S. Sharma, J. Yang, R. Olivares  : DMRG                   
  Ulf Ekstrom                                   : XCFun DFT Library      
  Mihaly Kallay                                 : mrcc  (arbitrary order and MRCC methods)
  Frank Weinhold                                : gennbo (NPA and NBO analysis)           
  Simon Mueller                                 : openCOSMO-RS                            
  Christopher J. Cramer and Donald G. Truhlar   : smd solvation model                     
  S Lehtola, MJT Oliveira, MAL Marques          : LibXC Library                           
  Liviu Ungur et al                             : ANISO software                          


 Your calculation uses the libint2 library for the computation of 2-el integrals
 For citations please refer to: http://libint.valeyev.net

 Your ORCA version has been built with support for libXC version: 6.2.2
 For citations please refer to: https://libxc.gitlab.io

 This ORCA versions uses:
   CBLAS   interface :  Fast vector & matrix operations
   LAPACKE interface :  Fast linear algebra routines
   SCALAPACK package :  Parallel linear algebra routines
   Shared memory     :  Shared parallel matrices
   BLAS/LAPACK       :  OpenBLAS 0.3.27  USE64BITINT DYNAMIC_ARCH NO_AFFINITY SkylakeX SINGLE_THREADED
        Core in use  :  SkylakeX
   Copyright (c) 2011-2014, The OpenBLAS Project


Your calculation utilizes the semiempirical GFN2-xTB method
Please cite in your paper:
C. Bannwarth, Ehlert S., S. Grimme,  J. Chem. Theory Comput., 15, (2019), 1652.
   

================================================================================

================================================================================
                                        WARNINGS
                       Please study these warnings very carefully!
================================================================================


WARNING: Analytical Hessian for XTB is limited in the analysis of the data.
       : If you want to obtain extensive IR and deltaG analysis, please use ! XTB NumFreq. 


WARNING: Geometry Optimization
  ===> : Switching off AutoStart
         For restart on a previous wavefunction, please use MOREAD

WARNING: Found dipole moment calculation with XTB calculation
  ===> : Switching off dipole moment calculation


WARNING: Found frequency calculation in combination with XTB calculation
  ===> : Need to redirect dipole moment calculation to properties.out


================================================================================
                                       INPUT FILE
================================================================================
NAME = geom_freq.inp
|  1> ! VERYTIGHTOPT FREQ GFN2-xTB VeryTightSCF
|  2> 
|  3> %PAL NPROCS 20 END
|  4> 
|  5> %SCF
|  6> MAXITER 500
|  7> END
|  8> 
|  9> %geom
| 10> MAXITER 500
| 11> end
| 12> 
| 13> * xyz 0 1
| 14>  C    0.720732385290  -0.991978188663   3.304040974145
| 15>  C   -0.720732385290  -0.991978188664   3.304040974145
| 16>  C   -1.414713632523  -1.947174663711   2.574333509761
| 17>  C   -0.693986238866  -2.939184705447   1.816512006672
| 18>  C    0.693986238866  -2.939184705447   1.816512006673
| 19>  C    1.414713632523  -1.947174663711   2.574333509762
| 20>  C    1.166170209546   0.378937481482   3.304052719303
| 21>  C   -0.000000000000   1.226211079677   3.304075966002
| 22>  C   -1.166170209546   0.378937481482   3.304052719303
| 23>  C   -2.289065876907   0.743781600301   2.574343396327
| 24>  C   -2.580874620286  -1.568268758507   1.816497622523
| 25>  C   -1.414710151173  -3.173376288505   0.590320471458
| 26>  C   -0.720732809150  -3.398881545409  -0.590376845769
| 27>  C    0.720732809150  -3.398881545408  -0.590376845768
| 28>  C    1.414710151173  -3.173376288505   0.590320471458
| 29>  C    2.580884824006  -2.326114874212   0.590331649597
| 30>  C    2.580874620286  -1.568268758507   1.816497622523
| 31>  C    3.009775384798  -0.248223561845   1.816492350984
| 32>  C    2.289065876907   0.743781600301   2.574343396327
| 33>  C    0.000000000000   2.406907909414   2.574396427842
| 34>  C    1.166178464353   2.785823061641   1.816584422927
| 35>  C    2.289073713744   1.969978188332   1.816544882496
| 36>  C    3.009796733762   1.735784164191   0.590347718237
| 37>  C    3.455232881696   0.364865272052   0.590333262706
| 38>  C    3.455232881696  -0.364865272051  -0.590333262706
| 39>  C    3.009796733762  -1.735784164191  -0.590347718237
| 40>  C    2.289073713743  -1.969978188332  -1.816544882495
| 41>  C    1.166178464352  -2.785823061640  -1.816584422927
| 42>  C   -2.580884824006  -2.326114874212   0.590331649596
| 43>  C   -1.166170209546  -0.378937481482  -3.304052719303
| 44>  C   -2.289065876907  -0.743781600301  -2.574343396327
| 45>  C   -3.009775384798   0.248223561845  -1.816492350984
| 46>  C   -2.580874620286   1.568268758507  -1.816497622523
| 47>  C   -1.414713632523   1.947174663711  -2.574333509762
| 48>  C    0.720732385290   0.991978188664  -3.304040974145
| 49>  C    1.166170209546  -0.378937481482  -3.304052719303
| 50>  C    0.000000000000  -1.226211079677  -3.304075966002
| 51>  C   -0.000000000000  -2.406907909414  -2.574396427842
| 52>  C   -1.166178464353  -2.785823061641  -1.816584422927
| 53>  C   -2.289073713744  -1.969978188332  -1.816544882496
| 54>  C   -3.455232881696  -0.364865272052  -0.590333262706
| 55>  C   -3.455232881696   0.364865272051   0.590333262706
| 56>  C   -3.009796733762   1.735784164191   0.590347718237
| 57>  C   -2.580884824006   2.326114874212  -0.590331649597
| 58>  C   -1.414710151173   3.173376288505  -0.590320471458
| 59>  C   -0.693986238866   2.939184705447  -1.816512006673
| 60>  C    0.693986238866   2.939184705447  -1.816512006672
| 61>  C    1.414713632523   1.947174663711  -2.574333509761
| 62>  C    2.289065876907  -0.743781600301  -2.574343396327
| 63>  C    3.009775384798   0.248223561846  -1.816492350984
| 64>  C    2.580874620286   1.568268758507  -1.816497622523
| 65>  C    2.580884824006   2.326114874212  -0.590331649596
| 66>  C    1.414710151173   3.173376288505  -0.590320471458
| 67>  C    0.720732809150   3.398881545409   0.590376845769
| 68>  C   -0.720732809150   3.398881545408   0.590376845768
| 69>  C   -1.166178464352   2.785823061640   1.816584422927
| 70>  C   -2.289073713743   1.969978188332   1.816544882495
| 71>  C   -3.009796733762  -1.735784164191  -0.590347718237
| 72>  C   -3.009775384798  -0.248223561846   1.816492350984
| 73>  C   -0.720732385290   0.991978188663  -3.304040974145
| 74> *
| 75> 
| 76>                          ****END OF INPUT****
================================================================================

                       *****************************
                       * Geometry Optimization Run *
                       *****************************

Geometry optimization settings:
Update method            Update   .... BFGS
Choice of coordinates    CoordSys .... (2022) Redundant Internals
Initial Hessian          InHess   .... Almloef's Model
Max. no of cycles        MaxIter  .... 500

Convergence Tolerances:
Energy Change            TolE     ....  2.0000e-07 Eh
Max. Gradient            TolMAXG  ....  3.0000e-05 Eh/bohr
RMS Gradient             TolRMSG  ....  8.0000e-06 Eh/bohr
Max. Displacement        TolMAXD  ....  2.0000e-04 bohr
RMS Displacement         TolRMSD  ....  1.0000e-04 bohr
Strict Convergence                .... False

------------------------------------------------------------------------------
                        ORCA OPTIMIZATION COORDINATE SETUP
------------------------------------------------------------------------------

The optimization will be done in redundant internal coordinates (2022)
Making redundant internal coordinates   ...  (2022 redundants) done
Evaluating the initial hessian          ...  (Almloef) done
Evaluating the coordinates              ...  done
Calculating the B-matrix                .... done
Calculating the G-matrix                .... done
Diagonalizing the G-matrix              .... done
The first mode is                       ....  456
The number of degrees of freedom        ....  174

    -----------------------------------------------------------------
                    Redundant Internal Coordinates


    -----------------------------------------------------------------
         Definition                    Initial Value    Approx d2E/dq
    -----------------------------------------------------------------
      1. B(C   1,C   0)                  1.4415         0.517166   
      2. B(C   2,C   1)                  1.3880         0.629454   
      3. B(C   3,C   2)                  1.4415         0.517163   
      4. B(C   4,C   3)                  1.3880         0.629468   
      5. B(C   5,C   4)                  1.4415         0.517163   
      6. B(C   5,C   0)                  1.3880         0.629454   
      7. B(C   6,C   0)                  1.4415         0.517163   
      8. B(C   7,C   6)                  1.4415         0.517163   
      9. B(C   8,C   7)                  1.4415         0.517163   
     10. B(C   8,C   1)                  1.4415         0.517163   
     11. B(C   9,C   8)                  1.3880         0.629456   
     12. B(C  10,C   2)                  1.4415         0.517169   
     13. B(C  11,C   3)                  1.4415         0.517157   
     14. B(C  12,C  11)                  1.3880         0.629438   
     15. B(C  13,C  12)                  1.4415         0.517164   
     16. B(C  14,C  13)                  1.3880         0.629438   
     17. B(C  14,C   4)                  1.4415         0.517157   
     18. B(C  15,C  14)                  1.4415         0.517169   
     19. B(C  16,C   5)                  1.4415         0.517169   
     20. B(C  16,C  15)                  1.4415         0.517170   
     21. B(C  17,C  16)                  1.3880         0.629461   
     22. B(C  18,C  17)                  1.4415         0.517157   
     23. B(C  18,C   6)                  1.3880         0.629456   
     24. B(C  19,C   7)                  1.3880         0.629460   
     25. B(C  20,C  19)                  1.4415         0.517161   
     26. B(C  21,C  20)                  1.3880         0.629443   
     27. B(C  21,C  18)                  1.4415         0.517168   
     28. B(C  22,C  21)                  1.4415         0.517148   
     29. B(C  23,C  22)                  1.4415         0.517158   
     30. B(C  23,C  17)                  1.4414         0.517195   
     31. B(C  24,C  23)                  1.3880         0.629457   
     32. B(C  25,C  24)                  1.4415         0.517158   
     33. B(C  25,C  15)                  1.3880         0.629474   
     34. B(C  26,C  25)                  1.4415         0.517148   
     35. B(C  27,C  26)                  1.3880         0.629443   
     36. B(C  27,C  13)                  1.4415         0.517148   
     37. B(C  28,C  11)                  1.4415         0.517169   
     38. B(C  28,C  10)                  1.4415         0.517170   
     39. B(C  30,C  29)                  1.3880         0.629456   
     40. B(C  31,C  30)                  1.4415         0.517157   
     41. B(C  32,C  31)                  1.3880         0.629461   
     42. B(C  33,C  32)                  1.4415         0.517169   
     43. B(C  35,C  34)                  1.4415         0.517163   
     44. B(C  36,C  35)                  1.4415         0.517163   
     45. B(C  36,C  29)                  1.4415         0.517163   
     46. B(C  37,C  36)                  1.3880         0.629460   
     47. B(C  37,C  27)                  1.4415         0.517161   
     48. B(C  38,C  37)                  1.4415         0.517161   
     49. B(C  38,C  12)                  1.4415         0.517148   
     50. B(C  39,C  38)                  1.3880         0.629443   
     51. B(C  39,C  30)                  1.4415         0.517168   
     52. B(C  40,C  31)                  1.4414         0.517195   
     53. B(C  41,C  40)                  1.3880         0.629457   
     54. B(C  42,C  41)                  1.4415         0.517158   
     55. B(C  43,C  42)                  1.3880         0.629474   
     56. B(C  43,C  32)                  1.4415         0.517170   
     57. B(C  44,C  43)                  1.4415         0.517169   
     58. B(C  45,C  44)                  1.4415         0.517157   
     59. B(C  45,C  33)                  1.4415         0.517163   
     60. B(C  46,C  45)                  1.3880         0.629468   
     61. B(C  47,C  46)                  1.4415         0.517163   
     62. B(C  47,C  34)                  1.3880         0.629454   
     63. B(C  48,C  26)                  1.4415         0.517168   
     64. B(C  48,C  35)                  1.3880         0.629456   
     65. B(C  49,C  48)                  1.4415         0.517157   
     66. B(C  49,C  24)                  1.4414         0.517195   
     67. B(C  50,C  49)                  1.3880         0.629461   
     68. B(C  50,C  47)                  1.4415         0.517169   
     69. B(C  51,C  50)                  1.4415         0.517170   
     70. B(C  51,C  22)                  1.3880         0.629474   
     71. B(C  52,C  51)                  1.4415         0.517169   
     72. B(C  52,C  46)                  1.4415         0.517157   
     73. B(C  53,C  52)                  1.3880         0.629438   
     74. B(C  53,C  20)                  1.4415         0.517148   
     75. B(C  54,C  53)                  1.4415         0.517164   
     76. B(C  54,C  44)                  1.3880         0.629438   
     77. B(C  55,C  54)                  1.4415         0.517148   
     78. B(C  55,C  19)                  1.4415         0.517161   
     79. B(C  56,C  55)                  1.3880         0.629443   
     80. B(C  56,C  42)                  1.4415         0.517148   
     81. B(C  56,C   9)                  1.4415         0.517168   
     82. B(C  57,C  40)                  1.4415         0.517158   
     83. B(C  57,C  39)                  1.4415         0.517148   
     84. B(C  57,C  28)                  1.3880         0.629474   
     85. B(C  58,C  41)                  1.4414         0.517195   
     86. B(C  58,C  10)                  1.3880         0.629461   
     87. B(C  58,C   9)                  1.4415         0.517157   
     88. B(C  59,C  34)                  1.4415         0.517166   
     89. B(C  59,C  33)                  1.3880         0.629454   
     90. B(C  59,C  29)                  1.4415         0.517163   
     91. A(C   1,C   0,C   6)          108.0000         0.406869   
     92. A(C   5,C   0,C   6)          120.0005         0.421325   
     93. A(C   1,C   0,C   5)          119.9996         0.421325   
     94. A(C   0,C   1,C   2)          119.9996         0.421325   
     95. A(C   2,C   1,C   8)          120.0005         0.421325   
     96. A(C   0,C   1,C   8)          108.0000         0.406869   
     97. A(C   1,C   2,C   3)          120.0006         0.421325   
     98. A(C   3,C   2,C  10)          107.9993         0.406869   
     99. A(C   1,C   2,C  10)          120.0001         0.421325   
    100. A(C   4,C   3,C  11)          119.9995         0.421325   
    101. A(C   2,C   3,C  11)          108.0007         0.406868   
    102. A(C   2,C   3,C   4)          119.9997         0.421326   
    103. A(C   3,C   4,C   5)          119.9997         0.421326   
    104. A(C   3,C   4,C  14)          119.9995         0.421325   
    105. A(C   5,C   4,C  14)          108.0007         0.406868   
    106. A(C   0,C   5,C  16)          120.0001         0.421325   
    107. A(C   0,C   5,C   4)          120.0006         0.421325   
    108. A(C   4,C   5,C  16)          107.9993         0.406869   
    109. A(C   0,C   6,C  18)          119.9994         0.421325   
    110. A(C   7,C   6,C  18)          120.0007         0.421325   
    111. A(C   0,C   6,C   7)          108.0000         0.406869   
    112. A(C   6,C   7,C   8)          107.9999         0.406868   
    113. A(C   8,C   7,C  19)          119.9999         0.421325   
    114. A(C   6,C   7,C  19)          119.9999         0.421325   
    115. A(C   7,C   8,C   9)          120.0007         0.421325   
    116. A(C   1,C   8,C   9)          119.9994         0.421325   
    117. A(C   1,C   8,C   7)          108.0000         0.406869   
    118. A(C  56,C   9,C  58)          108.0002         0.406868   
    119. A(C   8,C   9,C  58)          120.0001         0.421324   
    120. A(C   8,C   9,C  56)          119.9998         0.421326   
    121. A(C   2,C  10,C  28)          108.0003         0.406870   
    122. A(C   2,C  10,C  58)          119.9996         0.421326   
    123. A(C  28,C  10,C  58)          120.0008         0.421327   
    124. A(C   3,C  11,C  28)          107.9992         0.406869   
    125. A(C   3,C  11,C  12)          120.0012         0.421322   
    126. A(C  12,C  11,C  28)          120.0003         0.421324   
    127. A(C  11,C  12,C  38)          120.0010         0.421320   
    128. A(C  13,C  12,C  38)          108.0002         0.406867   
    129. A(C  11,C  12,C  13)          119.9993         0.421323   
    130. A(C  12,C  13,C  27)          108.0002         0.406867   
    131. A(C  12,C  13,C  14)          119.9993         0.421323   
    132. A(C  14,C  13,C  27)          120.0010         0.421320   
    133. A(C   4,C  14,C  15)          107.9992         0.406869   
    134. A(C   4,C  14,C  13)          120.0012         0.421322   
    135. A(C  13,C  14,C  15)          120.0003         0.421324   
    136. A(C  16,C  15,C  25)          119.9994         0.421328   
    137. A(C  14,C  15,C  25)          119.9995         0.421328   
    138. A(C  14,C  15,C  16)          108.0005         0.406870   
    139. A(C   5,C  16,C  15)          108.0003         0.406870   
    140. A(C   5,C  16,C  17)          119.9996         0.421326   
    141. A(C  15,C  16,C  17)          120.0008         0.421327   
    142. A(C  18,C  17,C  23)          108.0008         0.406872   
    143. A(C  16,C  17,C  23)          120.0007         0.421330   
    144. A(C  16,C  17,C  18)          120.0004         0.421324   
    145. A(C   6,C  18,C  17)          120.0001         0.421324   
    146. A(C  17,C  18,C  21)          108.0002         0.406868   
    147. A(C   6,C  18,C  21)          119.9998         0.421326   
    148. A(C   7,C  19,C  55)          119.9994         0.421325   
    149. A(C  20,C  19,C  55)          108.0009         0.406868   
    150. A(C   7,C  19,C  20)          119.9994         0.421325   
    151. A(C  19,C  20,C  21)          120.0008         0.421323   
    152. A(C  21,C  20,C  53)          119.9977         0.421321   
    153. A(C  19,C  20,C  53)          107.9993         0.406866   
    154. A(C  20,C  21,C  22)          120.0013         0.421321   
    155. A(C  18,C  21,C  22)          107.9989         0.406867   
    156. A(C  18,C  21,C  20)          119.9995         0.421324   
    157. A(C  23,C  22,C  51)          119.9991         0.421326   
    158. A(C  21,C  22,C  51)          120.0002         0.421325   
    159. A(C  21,C  22,C  23)          108.0008         0.406866   
    160. A(C  22,C  23,C  24)          120.0018         0.421324   
    161. A(C  17,C  23,C  24)          119.9982         0.421330   
    162. A(C  17,C  23,C  22)          107.9994         0.406872   
    163. A(C  25,C  24,C  49)          107.9994         0.406872   
    164. A(C  23,C  24,C  49)          119.9982         0.421330   
    165. A(C  23,C  24,C  25)          120.0018         0.421324   
    166. A(C  24,C  25,C  26)          108.0008         0.406866   
    167. A(C  15,C  25,C  26)          120.0002         0.421325   
    168. A(C  15,C  25,C  24)          119.9991         0.421326   
    169. A(C  25,C  26,C  27)          120.0013         0.421321   
    170. A(C  27,C  26,C  48)          119.9995         0.421324   
    171. A(C  25,C  26,C  48)          107.9989         0.406867   
    172. A(C  13,C  27,C  26)          119.9977         0.421321   
    173. A(C  26,C  27,C  37)          120.0008         0.421323   
    174. A(C  13,C  27,C  37)          107.9993         0.406866   
    175. A(C  11,C  28,C  57)          119.9995         0.421328   
    176. A(C  10,C  28,C  57)          119.9994         0.421328   
    177. A(C  10,C  28,C  11)          108.0005         0.406870   
    178. A(C  30,C  29,C  59)          119.9994         0.421325   
    179. A(C  30,C  29,C  36)          120.0007         0.421325   
    180. A(C  36,C  29,C  59)          108.0000         0.406869   
    181. A(C  29,C  30,C  39)          119.9998         0.421326   
    182. A(C  31,C  30,C  39)          108.0002         0.406868   
    183. A(C  29,C  30,C  31)          120.0001         0.421324   
    184. A(C  30,C  31,C  40)          108.0008         0.406872   
    185. A(C  32,C  31,C  40)          120.0007         0.421330   
    186. A(C  30,C  31,C  32)          120.0004         0.421324   
    187. A(C  33,C  32,C  43)          108.0003         0.406870   
    188. A(C  31,C  32,C  43)          120.0008         0.421327   
    189. A(C  31,C  32,C  33)          119.9996         0.421326   
    190. A(C  32,C  33,C  45)          107.9993         0.406869   
    191. A(C  32,C  33,C  59)          120.0001         0.421325   
    192. A(C  45,C  33,C  59)          120.0006         0.421325   
    193. A(C  35,C  34,C  47)          120.0005         0.421325   
    194. A(C  47,C  34,C  59)          119.9996         0.421325   
    195. A(C  35,C  34,C  59)          108.0000         0.406869   
    196. A(C  36,C  35,C  48)          120.0007         0.421325   
    197. A(C  34,C  35,C  48)          119.9994         0.421325   
    198. A(C  34,C  35,C  36)          108.0000         0.406869   
    199. A(C  35,C  36,C  37)          119.9999         0.421325   
    200. A(C  29,C  36,C  37)          119.9999         0.421325   
    201. A(C  29,C  36,C  35)          107.9999         0.406868   
    202. A(C  36,C  37,C  38)          119.9994         0.421325   
    203. A(C  27,C  37,C  38)          108.0009         0.406868   
    204. A(C  27,C  37,C  36)          119.9994         0.421325   
    205. A(C  37,C  38,C  39)          120.0008         0.421323   
    206. A(C  12,C  38,C  39)          119.9977         0.421321   
    207. A(C  12,C  38,C  37)          107.9993         0.406866   
    208. A(C  30,C  39,C  38)          119.9995         0.421324   
    209. A(C  38,C  39,C  57)          120.0013         0.421321   
    210. A(C  30,C  39,C  57)          107.9989         0.406867   
    211. A(C  31,C  40,C  41)          119.9982         0.421330   
    212. A(C  41,C  40,C  57)          120.0018         0.421324   
    213. A(C  31,C  40,C  57)          107.9994         0.406872   
    214. A(C  40,C  41,C  42)          120.0018         0.421324   
    215. A(C  42,C  41,C  58)          107.9994         0.406872   
    216. A(C  40,C  41,C  58)          119.9982         0.421330   
    217. A(C  41,C  42,C  43)          119.9991         0.421326   
    218. A(C  43,C  42,C  56)          120.0002         0.421325   
    219. A(C  41,C  42,C  56)          108.0008         0.406866   
    220. A(C  42,C  43,C  44)          119.9995         0.421328   
    221. A(C  32,C  43,C  44)          108.0005         0.406870   
    222. A(C  32,C  43,C  42)          119.9994         0.421328   
    223. A(C  43,C  44,C  45)          107.9992         0.406869   
    224. A(C  45,C  44,C  54)          120.0012         0.421322   
    225. A(C  43,C  44,C  54)          120.0003         0.421324   
    226. A(C  44,C  45,C  46)          119.9995         0.421325   
    227. A(C  33,C  45,C  46)          119.9997         0.421326   
    228. A(C  33,C  45,C  44)          108.0007         0.406868   
    229. A(C  47,C  46,C  52)          108.0007         0.406868   
    230. A(C  45,C  46,C  52)          119.9995         0.421325   
    231. A(C  45,C  46,C  47)          119.9997         0.421326   
    232. A(C  46,C  47,C  50)          107.9993         0.406869   
    233. A(C  34,C  47,C  50)          120.0001         0.421325   
    234. A(C  34,C  47,C  46)          120.0006         0.421325   
    235. A(C  35,C  48,C  49)          120.0001         0.421324   
    236. A(C  26,C  48,C  49)          108.0002         0.406868   
    237. A(C  26,C  48,C  35)          119.9998         0.421326   
    238. A(C  48,C  49,C  50)          120.0004         0.421324   
    239. A(C  24,C  49,C  50)          120.0007         0.421330   
    240. A(C  24,C  49,C  48)          108.0008         0.406872   
    241. A(C  49,C  50,C  51)          120.0008         0.421327   
    242. A(C  47,C  50,C  51)          108.0003         0.406870   
    243. A(C  47,C  50,C  49)          119.9996         0.421326   
    244. A(C  22,C  51,C  50)          119.9994         0.421328   
    245. A(C  50,C  51,C  52)          108.0005         0.406870   
    246. A(C  22,C  51,C  52)          119.9995         0.421328   
    247. A(C  51,C  52,C  53)          120.0003         0.421324   
    248. A(C  46,C  52,C  53)          120.0012         0.421322   
    249. A(C  46,C  52,C  51)          107.9992         0.406869   
    250. A(C  52,C  53,C  54)          119.9993         0.421323   
    251. A(C  20,C  53,C  54)          108.0002         0.406867   
    252. A(C  20,C  53,C  52)          120.0010         0.421320   
    253. A(C  53,C  54,C  55)          108.0002         0.406867   
    254. A(C  44,C  54,C  55)          120.0010         0.421320   
    255. A(C  44,C  54,C  53)          119.9993         0.421323   
    256. A(C  54,C  55,C  56)          119.9977         0.421321   
    257. A(C  19,C  55,C  56)          120.0008         0.421323   
    258. A(C  19,C  55,C  54)          107.9993         0.406866   
    259. A(C  42,C  56,C  55)          120.0013         0.421321   
    260. A(C   9,C  56,C  55)          119.9995         0.421324   
    261. A(C   9,C  56,C  42)          107.9989         0.406867   
    262. A(C  39,C  57,C  40)          108.0008         0.406866   
    263. A(C  28,C  57,C  40)          119.9991         0.421326   
    264. A(C  28,C  57,C  39)          120.0002         0.421325   
    265. A(C  10,C  58,C  41)          120.0007         0.421330   
    266. A(C   9,C  58,C  41)          108.0008         0.406872   
    267. A(C   9,C  58,C  10)          120.0004         0.421324   
    268. A(C  33,C  59,C  34)          119.9996         0.421325   
    269. A(C  29,C  59,C  34)          108.0000         0.406869   
    270. A(C  29,C  59,C  33)          120.0005         0.421325   
    271. D(C   8,C   1,C   0,C   5)   -142.6230         0.018236   
    272. D(C   2,C   1,C   0,C   5)     -0.0000         0.018236   
    273. D(C   8,C   1,C   0,C   6)      0.0000         0.018236   
    274. D(C   2,C   1,C   0,C   6)    142.6230         0.018236   
    275. D(C   3,C   2,C   1,C   8)    138.1902         0.027469   
    276. D(C  10,C   2,C   1,C   0)   -138.1892         0.027469   
    277. D(C  10,C   2,C   1,C   8)      0.0007         0.027469   
    278. D(C   3,C   2,C   1,C   0)      0.0003         0.027469   
    279. D(C  11,C   3,C   2,C  10)     -0.0001         0.018236   
    280. D(C   4,C   3,C   2,C   1)     -0.0003         0.018236   
    281. D(C  11,C   3,C   2,C   1)   -142.6227         0.018236   
    282. D(C   4,C   3,C   2,C  10)    142.6224         0.018236   
    283. D(C   5,C   4,C   3,C   2)     -0.0000         0.027470   
    284. D(C   5,C   4,C   3,C  11)    138.1899         0.027470   
    285. D(C  14,C   4,C   3,C  11)      0.0000         0.027470   
    286. D(C  14,C   4,C   3,C   2)   -138.1899         0.027470   
    287. D(C   4,C   5,C   0,C   6)   -138.1902         0.027469   
    288. D(C  16,C   5,C   4,C  14)      0.0001         0.018236   
    289. D(C  16,C   5,C   4,C   3)   -142.6224         0.018236   
    290. D(C   0,C   5,C   4,C   3)      0.0003         0.018236   
    291. D(C   4,C   5,C   0,C   1)     -0.0003         0.027469   
    292. D(C   0,C   5,C   4,C  14)    142.6227         0.018236   
    293. D(C  16,C   5,C   0,C   6)     -0.0007         0.027469   
    294. D(C  16,C   5,C   0,C   1)    138.1892         0.027469   
    295. D(C  18,C   6,C   0,C   5)      0.0003         0.018236   
    296. D(C  18,C   6,C   0,C   1)   -142.6223         0.018236   
    297. D(C   7,C   6,C   0,C   5)    142.6233         0.018236   
    298. D(C   7,C   6,C   0,C   1)      0.0007         0.018236   
    299. D(C   8,C   7,C   6,C  18)    142.6214         0.018236   
    300. D(C   8,C   7,C   6,C   0)     -0.0011         0.018236   
    301. D(C  19,C   7,C   6,C   0)   -142.6232         0.018236   
    302. D(C  19,C   7,C   6,C  18)     -0.0007         0.018236   
    303. D(C   7,C   8,C   1,C   2)   -142.6233         0.018236   
    304. D(C   9,C   8,C   7,C  19)      0.0007         0.018236   
    305. D(C   9,C   8,C   7,C   6)   -142.6214         0.018236   
    306. D(C   1,C   8,C   7,C   6)      0.0011         0.018236   
    307. D(C   1,C   8,C   7,C  19)    142.6232         0.018236   
    308. D(C   9,C   8,C   1,C   2)     -0.0003         0.018236   
    309. D(C   7,C   8,C   1,C   0)     -0.0007         0.018236   
    310. D(C   9,C   8,C   1,C   0)    142.6223         0.018236   
    311. D(C  58,C   9,C   8,C   7)    138.1888         0.027469   
    312. D(C  58,C   9,C   8,C   1)     -0.0010         0.027469   
    313. D(C  56,C   9,C   8,C   7)     -0.0009         0.027469   
    314. D(C  56,C   9,C   8,C   1)   -138.1907         0.027469   
    315. D(C  58,C  10,C   2,C   3)   -142.6228         0.018236   
    316. D(C  28,C  10,C   2,C   3)      0.0011         0.018236   
    317. D(C  58,C  10,C   2,C   1)      0.0001         0.018236   
    318. D(C  28,C  10,C   2,C   1)    142.6240         0.018236   
    319. D(C  28,C  11,C   3,C   4)   -142.6235         0.018236   
    320. D(C  12,C  11,C   3,C   4)      0.0001         0.018236   
    321. D(C  28,C  11,C   3,C   2)     -0.0010         0.018236   
    322. D(C  12,C  11,C   3,C   2)    142.6226         0.018236   
    323. D(C  38,C  12,C  11,C  28)     -0.0002         0.027467   
    324. D(C  38,C  12,C  11,C   3)   -138.1907         0.027467   
    325. D(C  13,C  12,C  11,C  28)    138.1903         0.027467   
    326. D(C  13,C  12,C  11,C   3)     -0.0001         0.027467   
    327. D(C  27,C  13,C  12,C  38)     -0.0000         0.018236   
    328. D(C  27,C  13,C  12,C  11)   -142.6238         0.018236   
    329. D(C  14,C  13,C  12,C  38)    142.6238         0.018236   
    330. D(C  14,C  13,C  12,C  11)      0.0000         0.018236   
    331. D(C  15,C  14,C   4,C   3)    142.6235         0.018236   
    332. D(C  13,C  14,C   4,C   3)     -0.0001         0.018236   
    333. D(C  13,C  14,C   4,C   5)   -142.6226         0.018236   
    334. D(C  15,C  14,C  13,C  27)      0.0002         0.027467   
    335. D(C  15,C  14,C  13,C  12)   -138.1903         0.027467   
    336. D(C   4,C  14,C  13,C  27)    138.1907         0.027467   
    337. D(C   4,C  14,C  13,C  12)      0.0001         0.027467   
    338. D(C  15,C  14,C   4,C   5)      0.0010         0.018236   
    339. D(C  25,C  15,C  14,C  13)      0.0009         0.018236   
    340. D(C  25,C  15,C  14,C   4)   -142.6231         0.018236   
    341. D(C  16,C  15,C  14,C  13)    142.6224         0.018236   
    342. D(C  16,C  15,C  14,C   4)     -0.0016         0.018236   
    343. D(C  17,C  16,C   5,C   0)     -0.0001         0.018236   
    344. D(C  17,C  16,C  15,C  14)   -142.6217         0.018237   
    345. D(C   5,C  16,C  15,C  25)    142.6232         0.018237   
    346. D(C   5,C  16,C  15,C  14)      0.0017         0.018237   
    347. D(C  17,C  16,C   5,C   4)    142.6228         0.018236   
    348. D(C  15,C  16,C   5,C   4)     -0.0011         0.018236   
    349. D(C  15,C  16,C   5,C   0)   -142.6240         0.018236   
    350. D(C  17,C  16,C  15,C  25)     -0.0002         0.018237   
    351. D(C  23,C  17,C  16,C   5)   -138.1914         0.027469   
    352. D(C  23,C  17,C  16,C  15)     -0.0006         0.027469   
    353. D(C  18,C  17,C  16,C  15)    138.1922         0.027469   
    354. D(C  18,C  17,C  16,C   5)      0.0014         0.027469   
    355. D(C  21,C  18,C  17,C  23)      0.0011         0.018236   
    356. D(C  21,C  18,C  17,C  16)   -142.6243         0.018236   
    357. D(C   6,C  18,C  17,C  16)     -0.0018         0.018236   
    358. D(C   6,C  18,C  17,C  23)    142.6236         0.018236   
    359. D(C  17,C  18,C   6,C   7)   -138.1888         0.027469   
    360. D(C  21,C  18,C   6,C   7)      0.0009         0.027469   
    361. D(C  21,C  18,C   6,C   0)    138.1907         0.027469   
    362. D(C  17,C  18,C   6,C   0)      0.0010         0.027469   
    363. D(C  55,C  19,C   7,C   8)      0.0003         0.027469   
    364. D(C  55,C  19,C   7,C   6)    138.1894         0.027469   
    365. D(C  20,C  19,C   7,C   8)   -138.1894         0.027469   
    366. D(C  20,C  19,C   7,C   6)     -0.0003         0.027469   
    367. D(C  53,C  20,C  19,C  55)     -0.0022         0.018236   
    368. D(C  53,C  20,C  19,C   7)    142.6200         0.018236   
    369. D(C  21,C  20,C  19,C  55)   -142.6209         0.018236   
    370. D(C  21,C  20,C  19,C   7)      0.0013         0.018236   
    371. D(C  22,C  21,C  20,C  53)      0.0016         0.027467   
    372. D(C  22,C  21,C  20,C  19)    138.1877         0.027467   
    373. D(C  18,C  21,C  20,C  53)   -138.1872         0.027467   
    374. D(C  18,C  21,C  20,C  19)     -0.0011         0.027467   
    375. D(C  22,C  21,C  18,C  17)     -0.0001         0.018236   
    376. D(C  22,C  21,C  18,C   6)   -142.6227         0.018236   
    377. D(C  20,C  21,C  18,C  17)    142.6227         0.018236   
    378. D(C  20,C  21,C  18,C   6)      0.0001         0.018236   
    379. D(C  51,C  22,C  21,C  20)     -0.0005         0.018235   
    380. D(C  51,C  22,C  21,C  18)    142.6215         0.018235   
    381. D(C  23,C  22,C  21,C  20)   -142.6229         0.018235   
    382. D(C  23,C  22,C  21,C  18)     -0.0010         0.018235   
    383. D(C  24,C  23,C  22,C  51)     -0.0002         0.018236   
    384. D(C  24,C  23,C  22,C  21)    142.6227         0.018236   
    385. D(C  17,C  23,C  22,C  51)   -142.6213         0.018236   
    386. D(C  17,C  23,C  22,C  21)      0.0017         0.018236   
    387. D(C  24,C  23,C  17,C  18)   -142.6243         0.018238   
    388. D(C  24,C  23,C  17,C  16)      0.0010         0.018238   
    389. D(C  22,C  23,C  17,C  18)     -0.0017         0.018238   
    390. D(C  22,C  23,C  17,C  16)    142.6236         0.018238   
    391. D(C  49,C  24,C  23,C  22)     -0.0005         0.027469   
    392. D(C  49,C  24,C  23,C  17)    138.1880         0.027469   
    393. D(C  25,C  24,C  23,C  22)   -138.1891         0.027469   
    394. D(C  25,C  24,C  23,C  17)     -0.0005         0.027469   
    395. D(C  26,C  25,C  15,C  14)     -0.0008         0.027470   
    396. D(C  24,C  25,C  15,C  16)      0.0006         0.027470   
    397. D(C  24,C  25,C  15,C  14)    138.1894         0.027470   
    398. D(C  26,C  25,C  24,C  49)      0.0017         0.018236   
    399. D(C  26,C  25,C  24,C  23)    142.6227         0.018236   
    400. D(C  15,C  25,C  24,C  49)   -142.6213         0.018236   
    401. D(C  15,C  25,C  24,C  23)     -0.0002         0.018236   
    402. D(C  26,C  25,C  15,C  16)   -138.1896         0.027470   
    403. D(C  48,C  26,C  25,C  24)     -0.0010         0.018235   
    404. D(C  48,C  26,C  25,C  15)    142.6215         0.018235   
    405. D(C  27,C  26,C  25,C  24)   -142.6229         0.018235   
    406. D(C  27,C  26,C  25,C  15)     -0.0005         0.018235   
    407. D(C  37,C  27,C  26,C  48)     -0.0011         0.027467   
    408. D(C  37,C  27,C  26,C  25)    138.1877         0.027467   
    409. D(C  13,C  27,C  26,C  48)   -138.1872         0.027467   
    410. D(C  13,C  27,C  26,C  25)      0.0016         0.027467   
    411. D(C  37,C  27,C  13,C  14)   -142.6216         0.018235   
    412. D(C  37,C  27,C  13,C  12)      0.0014         0.018235   
    413. D(C  26,C  27,C  13,C  14)     -0.0015         0.018235   
    414. D(C  26,C  27,C  13,C  12)    142.6215         0.018235   
    415. D(C  57,C  28,C  11,C  12)     -0.0009         0.018236   
    416. D(C  57,C  28,C  11,C   3)    142.6231         0.018236   
    417. D(C  10,C  28,C  11,C  12)   -142.6224         0.018236   
    418. D(C  10,C  28,C  11,C   3)      0.0016         0.018236   
    419. D(C  57,C  28,C  10,C  58)      0.0002         0.018237   
    420. D(C  57,C  28,C  10,C   2)   -142.6232         0.018237   
    421. D(C  11,C  28,C  10,C  58)    142.6217         0.018237   
    422. D(C  11,C  28,C  10,C   2)     -0.0017         0.018237   
    423. D(C  39,C  30,C  29,C  59)   -138.1907         0.027469   
    424. D(C  39,C  30,C  29,C  36)     -0.0009         0.027469   
    425. D(C  31,C  30,C  29,C  59)     -0.0010         0.027469   
    426. D(C  31,C  30,C  29,C  36)    138.1888         0.027469   
    427. D(C  40,C  31,C  30,C  39)     -0.0011         0.018236   
    428. D(C  40,C  31,C  30,C  29)   -142.6236         0.018236   
    429. D(C  32,C  31,C  30,C  39)    142.6243         0.018236   
    430. D(C  32,C  31,C  30,C  29)      0.0018         0.018236   
    431. D(C  43,C  32,C  31,C  40)      0.0006         0.027469   
    432. D(C  43,C  32,C  31,C  30)   -138.1922         0.027469   
    433. D(C  33,C  32,C  31,C  40)    138.1914         0.027469   
    434. D(C  33,C  32,C  31,C  30)     -0.0014         0.027469   
    435. D(C  59,C  33,C  32,C  43)    142.6240         0.018236   
    436. D(C  59,C  33,C  32,C  31)      0.0001         0.018236   
    437. D(C  45,C  33,C  32,C  43)      0.0011         0.018236   
    438. D(C  45,C  33,C  32,C  31)   -142.6228         0.018236   
    439. D(C  48,C  35,C  34,C  59)   -142.6223         0.018236   
    440. D(C  48,C  35,C  34,C  47)      0.0003         0.018236   
    441. D(C  36,C  35,C  34,C  59)      0.0007         0.018236   
    442. D(C  36,C  35,C  34,C  47)    142.6233         0.018236   
    443. D(C  37,C  36,C  35,C  48)     -0.0007         0.018236   
    444. D(C  37,C  36,C  35,C  34)   -142.6232         0.018236   
    445. D(C  29,C  36,C  35,C  48)    142.6214         0.018236   
    446. D(C  29,C  36,C  35,C  34)     -0.0011         0.018236   
    447. D(C  37,C  36,C  29,C  59)    142.6232         0.018236   
    448. D(C  37,C  36,C  29,C  30)      0.0007         0.018236   
    449. D(C  35,C  36,C  29,C  59)      0.0011         0.018236   
    450. D(C  35,C  36,C  29,C  30)   -142.6214         0.018236   
    451. D(C  38,C  37,C  36,C  35)    138.1894         0.027469   
    452. D(C  38,C  37,C  36,C  29)      0.0003         0.027469   
    453. D(C  27,C  37,C  36,C  35)     -0.0003         0.027469   
    454. D(C  27,C  37,C  36,C  29)   -138.1894         0.027469   
    455. D(C  38,C  37,C  27,C  26)   -142.6209         0.018236   
    456. D(C  38,C  37,C  27,C  13)     -0.0022         0.018236   
    457. D(C  36,C  37,C  27,C  26)      0.0013         0.018236   
    458. D(C  36,C  37,C  27,C  13)    142.6200         0.018236   
    459. D(C  39,C  38,C  37,C  36)     -0.0013         0.018236   
    460. D(C  39,C  38,C  37,C  27)    142.6209         0.018236   
    461. D(C  12,C  38,C  37,C  36)   -142.6200         0.018236   
    462. D(C  12,C  38,C  37,C  27)      0.0022         0.018236   
    463. D(C  39,C  38,C  12,C  13)   -142.6215         0.018235   
    464. D(C  39,C  38,C  12,C  11)      0.0015         0.018235   
    465. D(C  37,C  38,C  12,C  13)     -0.0014         0.018235   
    466. D(C  37,C  38,C  12,C  11)    142.6216         0.018235   
    467. D(C  57,C  39,C  38,C  37)   -138.1877         0.027467   
    468. D(C  57,C  39,C  38,C  12)     -0.0016         0.027467   
    469. D(C  30,C  39,C  38,C  37)      0.0011         0.027467   
    470. D(C  30,C  39,C  38,C  12)    138.1872         0.027467   
    471. D(C  57,C  39,C  30,C  31)      0.0001         0.018236   
    472. D(C  57,C  39,C  30,C  29)    142.6227         0.018236   
    473. D(C  38,C  39,C  30,C  31)   -142.6227         0.018236   
    474. D(C  38,C  39,C  30,C  29)     -0.0001         0.018236   
    475. D(C  57,C  40,C  31,C  32)   -142.6236         0.018238   
    476. D(C  57,C  40,C  31,C  30)      0.0017         0.018238   
    477. D(C  41,C  40,C  31,C  32)     -0.0010         0.018238   
    478. D(C  41,C  40,C  31,C  30)    142.6243         0.018238   
    479. D(C  58,C  41,C  40,C  57)      0.0005         0.027469   
    480. D(C  58,C  41,C  40,C  31)   -138.1880         0.027469   
    481. D(C  42,C  41,C  40,C  57)    138.1891         0.027469   
    482. D(C  42,C  41,C  40,C  31)      0.0005         0.027469   
    483. D(C  56,C  42,C  41,C  58)     -0.0017         0.018236   
    484. D(C  56,C  42,C  41,C  40)   -142.6227         0.018236   
    485. D(C  43,C  42,C  41,C  58)    142.6213         0.018236   
    486. D(C  43,C  42,C  41,C  40)      0.0002         0.018236   
    487. D(C  44,C  43,C  42,C  56)      0.0008         0.027470   
    488. D(C  44,C  43,C  42,C  41)   -138.1894         0.027470   
    489. D(C  32,C  43,C  42,C  56)    138.1896         0.027470   
    490. D(C  32,C  43,C  42,C  41)     -0.0006         0.027470   
    491. D(C  44,C  43,C  32,C  33)     -0.0017         0.018237   
    492. D(C  44,C  43,C  32,C  31)    142.6217         0.018237   
    493. D(C  42,C  43,C  32,C  33)   -142.6232         0.018237   
    494. D(C  42,C  43,C  32,C  31)      0.0002         0.018237   
    495. D(C  54,C  44,C  43,C  42)     -0.0009         0.018236   
    496. D(C  54,C  44,C  43,C  32)   -142.6224         0.018236   
    497. D(C  45,C  44,C  43,C  42)    142.6231         0.018236   
    498. D(C  45,C  44,C  43,C  32)      0.0016         0.018236   
    499. D(C  46,C  45,C  44,C  54)      0.0001         0.018236   
    500. D(C  46,C  45,C  44,C  43)   -142.6235         0.018236   
    501. D(C  33,C  45,C  44,C  54)    142.6226         0.018236   
    502. D(C  33,C  45,C  44,C  43)     -0.0010         0.018236   
    503. D(C  46,C  45,C  33,C  59)     -0.0003         0.018236   
    504. D(C  46,C  45,C  33,C  32)    142.6224         0.018236   
    505. D(C  44,C  45,C  33,C  59)   -142.6227         0.018236   
    506. D(C  44,C  45,C  33,C  32)     -0.0001         0.018236   
    507. D(C  52,C  46,C  45,C  44)     -0.0000         0.027470   
    508. D(C  52,C  46,C  45,C  33)   -138.1899         0.027470   
    509. D(C  47,C  46,C  45,C  44)    138.1899         0.027470   
    510. D(C  47,C  46,C  45,C  33)      0.0000         0.027470   
    511. D(C  50,C  47,C  46,C  52)      0.0001         0.018236   
    512. D(C  50,C  47,C  46,C  45)   -142.6224         0.018236   
    513. D(C  34,C  47,C  46,C  52)    142.6227         0.018236   
    514. D(C  34,C  47,C  46,C  45)      0.0003         0.018236   
    515. D(C  50,C  47,C  34,C  59)    138.1892         0.027469   
    516. D(C  50,C  47,C  34,C  35)     -0.0007         0.027469   
    517. D(C  46,C  47,C  34,C  59)     -0.0003         0.027469   
    518. D(C  46,C  47,C  34,C  35)   -138.1902         0.027469   
    519. D(C  49,C  48,C  35,C  34)      0.0010         0.027469   
    520. D(C  26,C  48,C  35,C  36)      0.0009         0.027469   
    521. D(C  26,C  48,C  35,C  34)    138.1907         0.027469   
    522. D(C  49,C  48,C  26,C  27)    142.6227         0.018236   
    523. D(C  49,C  48,C  26,C  25)     -0.0001         0.018236   
    524. D(C  35,C  48,C  26,C  27)      0.0001         0.018236   
    525. D(C  35,C  48,C  26,C  25)   -142.6227         0.018236   
    526. D(C  49,C  48,C  35,C  36)   -138.1888         0.027469   
    527. D(C  50,C  49,C  48,C  35)     -0.0018         0.018236   
    528. D(C  50,C  49,C  48,C  26)   -142.6243         0.018236   
    529. D(C  24,C  49,C  48,C  35)    142.6236         0.018236   
    530. D(C  24,C  49,C  48,C  26)      0.0011         0.018236   
    531. D(C  50,C  49,C  24,C  25)    142.6236         0.018238   
    532. D(C  50,C  49,C  24,C  23)      0.0010         0.018238   
    533. D(C  48,C  49,C  24,C  25)     -0.0017         0.018238   
    534. D(C  48,C  49,C  24,C  23)   -142.6243         0.018238   
    535. D(C  51,C  50,C  49,C  48)    138.1922         0.027469   
    536. D(C  51,C  50,C  49,C  24)     -0.0006         0.027469   
    537. D(C  47,C  50,C  49,C  48)      0.0014         0.027469   
    538. D(C  47,C  50,C  49,C  24)   -138.1914         0.027469   
    539. D(C  51,C  50,C  47,C  46)     -0.0011         0.018236   
    540. D(C  51,C  50,C  47,C  34)   -142.6240         0.018236   
    541. D(C  49,C  50,C  47,C  46)    142.6228         0.018236   
    542. D(C  49,C  50,C  47,C  34)     -0.0001         0.018236   
    543. D(C  52,C  51,C  50,C  49)   -142.6217         0.018237   
    544. D(C  52,C  51,C  50,C  47)      0.0017         0.018237   
    545. D(C  22,C  51,C  50,C  49)     -0.0002         0.018237   
    546. D(C  22,C  51,C  50,C  47)    142.6232         0.018237   
    547. D(C  52,C  51,C  22,C  23)    138.1894         0.027470   
    548. D(C  52,C  51,C  22,C  21)     -0.0008         0.027470   
    549. D(C  50,C  51,C  22,C  23)      0.0006         0.027470   
    550. D(C  50,C  51,C  22,C  21)   -138.1896         0.027470   
    551. D(C  53,C  52,C  51,C  50)    142.6224         0.018236   
    552. D(C  53,C  52,C  51,C  22)      0.0009         0.018236   
    553. D(C  46,C  52,C  51,C  50)     -0.0016         0.018236   
    554. D(C  46,C  52,C  51,C  22)   -142.6231         0.018236   
    555. D(C  53,C  52,C  46,C  47)   -142.6226         0.018236   
    556. D(C  53,C  52,C  46,C  45)     -0.0001         0.018236   
    557. D(C  51,C  52,C  46,C  47)      0.0010         0.018236   
    558. D(C  51,C  52,C  46,C  45)    142.6235         0.018236   
    559. D(C  54,C  53,C  52,C  51)   -138.1903         0.027467   
    560. D(C  54,C  53,C  52,C  46)      0.0001         0.027467   
    561. D(C  20,C  53,C  52,C  51)      0.0002         0.027467   
    562. D(C  20,C  53,C  52,C  46)    138.1907         0.027467   
    563. D(C  54,C  53,C  20,C  21)    142.6215         0.018235   
    564. D(C  54,C  53,C  20,C  19)      0.0014         0.018235   
    565. D(C  52,C  53,C  20,C  21)     -0.0015         0.018235   
    566. D(C  52,C  53,C  20,C  19)   -142.6216         0.018235   
    567. D(C  55,C  54,C  53,C  52)    142.6238         0.018236   
    568. D(C  55,C  54,C  53,C  20)      0.0000         0.018236   
    569. D(C  44,C  54,C  53,C  52)     -0.0000         0.018236   
    570. D(C  44,C  54,C  53,C  20)   -142.6238         0.018236   
    571. D(C  55,C  54,C  44,C  45)   -138.1907         0.027467   
    572. D(C  55,C  54,C  44,C  43)     -0.0002         0.027467   
    573. D(C  53,C  54,C  44,C  45)     -0.0001         0.027467   
    574. D(C  53,C  54,C  44,C  43)    138.1903         0.027467   
    575. D(C  56,C  55,C  54,C  53)   -142.6215         0.018235   
    576. D(C  56,C  55,C  54,C  44)      0.0015         0.018235   
    577. D(C  19,C  55,C  54,C  53)     -0.0014         0.018235   
    578. D(C  19,C  55,C  54,C  44)    142.6216         0.018235   
    579. D(C  56,C  55,C  19,C  20)    142.6209         0.018236   
    580. D(C  56,C  55,C  19,C   7)     -0.0013         0.018236   
    581. D(C  54,C  55,C  19,C  20)      0.0022         0.018236   
    582. D(C  54,C  55,C  19,C   7)   -142.6200         0.018236   
    583. D(C  42,C  56,C  55,C  54)     -0.0016         0.027467   
    584. D(C  42,C  56,C  55,C  19)   -138.1877         0.027467   
    585. D(C   9,C  56,C  55,C  54)    138.1872         0.027467   
    586. D(C   9,C  56,C  55,C  19)      0.0011         0.027467   
    587. D(C  55,C  56,C  42,C  43)      0.0005         0.018235   
    588. D(C  55,C  56,C  42,C  41)    142.6229         0.018235   
    589. D(C   9,C  56,C  42,C  43)   -142.6215         0.018235   
    590. D(C   9,C  56,C  42,C  41)      0.0010         0.018235   
    591. D(C  55,C  56,C   9,C  58)   -142.6227         0.018236   
    592. D(C  55,C  56,C   9,C   8)     -0.0001         0.018236   
    593. D(C  42,C  56,C   9,C  58)      0.0001         0.018236   
    594. D(C  42,C  56,C   9,C   8)    142.6227         0.018236   
    595. D(C  39,C  57,C  40,C  41)   -142.6227         0.018236   
    596. D(C  28,C  57,C  40,C  41)      0.0002         0.018236   
    597. D(C  28,C  57,C  40,C  31)    142.6213         0.018236   
    598. D(C  40,C  57,C  39,C  38)    142.6229         0.018235   
    599. D(C  40,C  57,C  39,C  30)      0.0010         0.018235   
    600. D(C  28,C  57,C  39,C  38)      0.0005         0.018235   
    601. D(C  28,C  57,C  39,C  30)   -142.6215         0.018235   
    602. D(C  40,C  57,C  28,C  11)   -138.1894         0.027470   
    603. D(C  40,C  57,C  28,C  10)     -0.0006         0.027470   
    604. D(C  39,C  57,C  40,C  31)     -0.0017         0.018236   
    605. D(C  39,C  57,C  28,C  11)      0.0008         0.027470   
    606. D(C  39,C  57,C  28,C  10)    138.1896         0.027470   
    607. D(C  10,C  58,C  41,C  42)   -142.6236         0.018238   
    608. D(C   9,C  58,C  41,C  42)      0.0017         0.018238   
    609. D(C   9,C  58,C  41,C  40)    142.6243         0.018238   
    610. D(C  41,C  58,C  10,C  28)      0.0006         0.027469   
    611. D(C  41,C  58,C  10,C   2)    138.1914         0.027469   
    612. D(C   9,C  58,C  10,C  28)   -138.1922         0.027469   
    613. D(C   9,C  58,C  10,C   2)     -0.0014         0.027469   
    614. D(C  41,C  58,C   9,C  56)     -0.0011         0.018236   
    615. D(C  41,C  58,C   9,C   8)   -142.6236         0.018236   
    616. D(C  10,C  58,C  41,C  40)     -0.0010         0.018238   
    617. D(C  10,C  58,C   9,C  56)    142.6243         0.018236   
    618. D(C  10,C  58,C   9,C   8)      0.0018         0.018236   
    619. D(C  33,C  59,C  34,C  47)      0.0000         0.018236   
    620. D(C  29,C  59,C  34,C  47)   -142.6230         0.018236   
    621. D(C  29,C  59,C  34,C  35)      0.0000         0.018236   
    622. D(C  34,C  59,C  33,C  45)      0.0003         0.027469   
    623. D(C  34,C  59,C  33,C  32)   -138.1892         0.027469   
    624. D(C  29,C  59,C  33,C  45)    138.1902         0.027469   
    625. D(C  29,C  59,C  33,C  32)      0.0007         0.027469   
    626. D(C  34,C  59,C  29,C  36)     -0.0007         0.018236   
    627. D(C  34,C  59,C  29,C  30)    142.6223         0.018236   
    628. D(C  33,C  59,C  34,C  35)    142.6230         0.018236   
    629. D(C  33,C  59,C  29,C  36)   -142.6233         0.018236   
    630. D(C  33,C  59,C  29,C  30)     -0.0003         0.018236   
    -----------------------------------------------------------------

Number of atoms                         .... 60
Number of degrees of freedom            .... 630


         *************************************************************
         *                GEOMETRY OPTIMIZATION CYCLE   1            *
         *************************************************************
---------------------------------
CARTESIAN COORDINATES (ANGSTROEM)
---------------------------------
  C     0.720732   -0.991978    3.304041
  C    -0.720732   -0.991978    3.304041
  C    -1.414714   -1.947175    2.574334
  C    -0.693986   -2.939185    1.816512
  C     0.693986   -2.939185    1.816512
  C     1.414714   -1.947175    2.574334
  C     1.166170    0.378937    3.304053
  C    -0.000000    1.226211    3.304076
  C    -1.166170    0.378937    3.304053
  C    -2.289066    0.743782    2.574343
  C    -2.580875   -1.568269    1.816498
  C    -1.414710   -3.173376    0.590320
  C    -0.720733   -3.398882   -0.590377
  C     0.720733   -3.398882   -0.590377
  C     1.414710   -3.173376    0.590320
  C     2.580885   -2.326115    0.590332
  C     2.580875   -1.568269    1.816498
  C     3.009775   -0.248224    1.816492
  C     2.289066    0.743782    2.574343
  C     0.000000    2.406908    2.574396
  C     1.166178    2.785823    1.816584
  C     2.289074    1.969978    1.816545
  C     3.009797    1.735784    0.590348
  C     3.455233    0.364865    0.590333
  C     3.455233   -0.364865   -0.590333
  C     3.009797   -1.735784   -0.590348
  C     2.289074   -1.969978   -1.816545
  C     1.166178   -2.785823   -1.816584
  C    -2.580885   -2.326115    0.590332
  C    -1.166170   -0.378937   -3.304053
  C    -2.289066   -0.743782   -2.574343
  C    -3.009775    0.248224   -1.816492
  C    -2.580875    1.568269   -1.816498
  C    -1.414714    1.947175   -2.574334
  C     0.720732    0.991978   -3.304041
  C     1.166170   -0.378937   -3.304053
  C     0.000000   -1.226211   -3.304076
  C    -0.000000   -2.406908   -2.574396
  C    -1.166178   -2.785823   -1.816584
  C    -2.289074   -1.969978   -1.816545
  C    -3.455233   -0.364865   -0.590333
  C    -3.455233    0.364865    0.590333
  C    -3.009797    1.735784    0.590348
  C    -2.580885    2.326115   -0.590332
  C    -1.414710    3.173376   -0.590320
  C    -0.693986    2.939185   -1.816512
  C     0.693986    2.939185   -1.816512
  C     1.414714    1.947175   -2.574334
  C     2.289066   -0.743782   -2.574343
  C     3.009775    0.248224   -1.816492
  C     2.580875    1.568269   -1.816498
  C     2.580885    2.326115   -0.590332
  C     1.414710    3.173376   -0.590320
  C     0.720733    3.398882    0.590377
  C    -0.720733    3.398882    0.590377
  C    -1.166178    2.785823    1.816584
  C    -2.289074    1.969978    1.816545
  C    -3.009797   -1.735784   -0.590348
  C    -3.009775   -0.248224    1.816492
  C    -0.720732    0.991978   -3.304041

----------------------------
CARTESIAN COORDINATES (A.U.)
----------------------------
  NO LB    ZA    FRAG    MASS        X           Y           Z
   0 C   6.0000    0    12.011    1.361987   -1.874567    6.243733
   1 C   6.0000    0    12.011   -1.361987   -1.874567    6.243733
   2 C   6.0000    0    12.011   -2.673421   -3.679627    4.864785
   3 C   6.0000    0    12.011   -1.311444   -5.554254    3.432710
   4 C   6.0000    0    12.011    1.311444   -5.554254    3.432710
   5 C   6.0000    0    12.011    2.673421   -3.679627    4.864785
   6 C   6.0000    0    12.011    2.203742    0.716088    6.243755
   7 C   6.0000    0    12.011   -0.000000    2.317203    6.243799
   8 C   6.0000    0    12.011   -2.203742    0.716088    6.243755
   9 C   6.0000    0    12.011   -4.325708    1.405544    4.864804
  10 C   6.0000    0    12.011   -4.877146   -2.963598    3.432683
  11 C   6.0000    0    12.011   -2.673415   -5.996812    1.115544
  12 C   6.0000    0    12.011   -1.361988   -6.422955   -1.115651
  13 C   6.0000    0    12.011    1.361988   -6.422955   -1.115651
  14 C   6.0000    0    12.011    2.673415   -5.996812    1.115544
  15 C   6.0000    0    12.011    4.877166   -4.395720    1.115565
  16 C   6.0000    0    12.011    4.877146   -2.963598    3.432683
  17 C   6.0000    0    12.011    5.687651   -0.469075    3.432673
  18 C   6.0000    0    12.011    4.325708    1.405544    4.864804
  19 C   6.0000    0    12.011    0.000000    4.548397    4.864904
  20 C   6.0000    0    12.011    2.203758    5.264443    3.432847
  21 C   6.0000    0    12.011    4.325722    3.722719    3.432772
  22 C   6.0000    0    12.011    5.687692    3.280157    1.115596
  23 C   6.0000    0    12.011    6.529444    0.689495    1.115568
  24 C   6.0000    0    12.011    6.529444   -0.689495   -1.115568
  25 C   6.0000    0    12.011    5.687692   -3.280157   -1.115596
  26 C   6.0000    0    12.011    4.325722   -3.722719   -3.432772
  27 C   6.0000    0    12.011    2.203758   -5.264443   -3.432847
  28 C   6.0000    0    12.011   -4.877166   -4.395720    1.115565
  29 C   6.0000    0    12.011   -2.203742   -0.716088   -6.243755
  30 C   6.0000    0    12.011   -4.325708   -1.405544   -4.864804
  31 C   6.0000    0    12.011   -5.687651    0.469075   -3.432673
  32 C   6.0000    0    12.011   -4.877146    2.963598   -3.432683
  33 C   6.0000    0    12.011   -2.673421    3.679627   -4.864785
  34 C   6.0000    0    12.011    1.361987    1.874567   -6.243733
  35 C   6.0000    0    12.011    2.203742   -0.716088   -6.243755
  36 C   6.0000    0    12.011    0.000000   -2.317203   -6.243799
  37 C   6.0000    0    12.011   -0.000000   -4.548397   -4.864904
  38 C   6.0000    0    12.011   -2.203758   -5.264443   -3.432847
  39 C   6.0000    0    12.011   -4.325722   -3.722719   -3.432772
  40 C   6.0000    0    12.011   -6.529444   -0.689495   -1.115568
  41 C   6.0000    0    12.011   -6.529444    0.689495    1.115568
  42 C   6.0000    0    12.011   -5.687692    3.280157    1.115596
  43 C   6.0000    0    12.011   -4.877166    4.395720   -1.115565
  44 C   6.0000    0    12.011   -2.673415    5.996812   -1.115544
  45 C   6.0000    0    12.011   -1.311444    5.554254   -3.432710
  46 C   6.0000    0    12.011    1.311444    5.554254   -3.432710
  47 C   6.0000    0    12.011    2.673421    3.679627   -4.864785
  48 C   6.0000    0    12.011    4.325708   -1.405544   -4.864804
  49 C   6.0000    0    12.011    5.687651    0.469075   -3.432673
  50 C   6.0000    0    12.011    4.877146    2.963598   -3.432683
  51 C   6.0000    0    12.011    4.877166    4.395720   -1.115565
  52 C   6.0000    0    12.011    2.673415    5.996812   -1.115544
  53 C   6.0000    0    12.011    1.361988    6.422955    1.115651
  54 C   6.0000    0    12.011   -1.361988    6.422955    1.115651
  55 C   6.0000    0    12.011   -2.203758    5.264443    3.432847
  56 C   6.0000    0    12.011   -4.325722    3.722719    3.432772
  57 C   6.0000    0    12.011   -5.687692   -3.280157   -1.115596
  58 C   6.0000    0    12.011   -5.687651   -0.469075    3.432673
  59 C   6.0000    0    12.011   -1.361987    1.874567   -6.243733

      -----------------------------------------------------------      
     |                   =====================                   |     
     |                           x T B                           |     
     |                   =====================                   |     
     |                         S. Grimme                         |     
     |          Mulliken Center for Theoretical Chemistry        |     
     |                    University of Bonn                     |     
      -----------------------------------------------------------      

   * xtb version 6.7.1 (edcfbbe) compiled by 'albert@albert-system' on 2024-07-22

   xtb is free software: you can redistribute it and/or modify it under
   the terms of the GNU Lesser General Public License as published by
   the Free Software Foundation, either version 3 of the License, or
   (at your option) any later version.
   
   xtb is distributed in the hope that it will be useful,
   but WITHOUT ANY WARRANTY; without even the implied warranty of
   MERCHANTABILITY or FITNESS FOR A PARTICULAR PURPOSE.  See the
   GNU Lesser General Public License for more details.
   
   Cite this work as:
   * C. Bannwarth, E. Caldeweyher, S. Ehlert, A. Hansen, P. Pracht,
     J. Seibert, S. Spicher, S. Grimme, WIREs Comput. Mol. Sci., 2020, 11,
     e01493. DOI: 10.1002/wcms.1493
   
   for GFN2-xTB:
   * C. Bannwarth, S. Ehlert and S. Grimme., J. Chem. Theory Comput., 2019,
     15, 1652-1671. DOI: 10.1021/acs.jctc.8b01176
   for GFN1-xTB:
   * S. Grimme, C. Bannwarth, P. Shushkov, J. Chem. Theory Comput., 2017,
     13, 1989-2009. DOI: 10.1021/acs.jctc.7b00118
   for GFN0-xTB:
   * P. Pracht, E. Caldeweyher, S. Ehlert, S. Grimme, ChemRxiv, 2019, preprint.
     DOI: 10.26434/chemrxiv.8326202.v1
   for GFN-FF:
   * S. Spicher and S. Grimme, Angew. Chem. Int. Ed., 2020, 59, 15665-15673.
     DOI: 10.1002/anie.202004239
   
   for ALPB and GBSA implicit solvation:
   * S. Ehlert, M. Stahn, S. Spicher, S. Grimme, J. Chem. Theory Comput.,
     2021, 17, 4250-4261. DOI: 10.1021/acs.jctc.1c00471
   
   for ddCOSMO and CPCM-X implicit solvation:
   * M. Stahn, S. Ehlert, S. Grimme, J. Phys. Chem. A,
     2023, XX, XXXX-XXXX. DOI: 10.1021/acs.jpca.3c04382
   
   for DFT-D4:
   * E. Caldeweyher, C. Bannwarth and S. Grimme, J. Chem. Phys., 2017,
     147, 034112. DOI: 10.1063/1.4993215
   * E. Caldeweyher, S. Ehlert, A. Hansen, H. Neugebauer, S. Spicher,
     C. Bannwarth and S. Grimme, J. Chem. Phys., 2019, 150, 154122.
     DOI: 10.1063/1.5090222
   * E. Caldeweyher, J.-M. Mewes, S. Ehlert and S. Grimme, Phys. Chem. Chem. Phys.
     2020, 22, 8499-8512. DOI: 10.1039/D0CP00502A
   
   for sTDA-xTB:
   * S. Grimme and C. Bannwarth, J. Chem. Phys., 2016, 145, 054103.
     DOI: 10.1063/1.4959605
   
   in the mass-spec context:
   * V. Asgeirsson, C. Bauer and S. Grimme, Chem. Sci., 2017, 8, 4879.
     DOI: 10.1039/c7sc00601b
   * J. Koopman and S. Grimme, ACS Omega 2019, 4, 12, 15120-15133.
     DOI: 10.1021/acsomega.9b02011
   
   for metadynamics refer to:
   * S. Grimme, J. Chem. Theory Comput., 2019, 155, 2847-2862
     DOI: 10.1021/acs.jctc.9b00143
   
   for SPH calculations refer to:
   * S. Spicher and S. Grimme, J. Chem. Theory Comput., 2021, 17, 1701-1714
     DOI: 10.1021/acs.jctc.0c01306
   
   for ONIOM refer to:
   * C. Plett, A. Katbashev, S. Ehlert, S. Grimme, M. Bursch,
     Phys. Chem. Chem. Phys., 2023, 25, 17860-17868. DOI: 10.1039/D3CP02178E
   
   for DIPRO refer to:
   * J. Kohn, N. Gildemeister, S. Grimme, D. Fazzi, A. Hansen,
     J. Chem. Phys., 2023, just accepted.
   
   for PTB refer to:
   * S. Grimme, M. Mueller, A. Hansen, J. Chem. Phys., 2023, 158, 124111.
     DOI: 10.1063/5.0137838
   
   with help from (in alphabetical order)
   P. Atkinson, C. Bannwarth, F. Bohle, G. Brandenburg, E. Caldeweyher
   M. Checinski, S. Dohm, S. Ehlert, S. Ehrlich, I. Gerasimov, C. Hölzer
   A. Katbashev, J. Kohn, J. Koopman, C. Lavigne, S. Lehtola, F. März, M. Müller,
   F. Musil, H. Neugebauer, J. Pisarek, C. Plett, P. Pracht, F. Pultar,
   J. Seibert, P. Shushkov, S. Spicher, M. Stahn, M. Steiner, T. Strunk,
   J. Stückrath, T. Rose, and J. Unsleber
   
 * started run on 2026/07/13 at 16:19:06.337     
   ID    Z sym.   atoms
    1    6 C      1-60

           -------------------------------------------------
          |                Calculation Setup                |
           -------------------------------------------------

          program call               : /g100_work/PROJECTS/spack/preprod/05/install/0.21/linux-centos8-skylake_avx512/gcc-12.2.0/orca-6.0.1-dkggwxr6zwzqt5qvyuyunkyf25zqcy5b/bin/otool_xtb geom_freq_XTB.xyz --grad -c 0 -u 0 -P 20 --namespace geom_freq --input geom_freq_XTB.input.tmp --acc 0.050000
          hostname                   : r519c01n01
          calculation namespace      : geom_freq
          coordinate file            : geom_freq_XTB.xyz
          omp threads                :                    20


           -------------------------------------------------
          |                 G F N 2 - x T B                 |
           -------------------------------------------------

        Reference                      10.1021/acs.jctc.8b01176
      * Hamiltonian:
        H0-scaling (s, p, d)           1.850000    2.230000    2.230000
        zeta-weighting                 0.500000
      * Dispersion:
        s8                             2.700000
        a1                             0.520000
        a2                             5.000000
        s9                             5.000000
      * Repulsion:
        kExp                           1.500000    1.000000
        rExp                           1.000000
      * Coulomb:
        alpha                          2.000000
        third order                    shell-resolved
        anisotropic                    true
        a3                             3.000000
        a5                             4.000000
        cn-shift                       1.200000
        cn-exp                         4.000000
        max-rad                        5.000000


          ...................................................
          :                      SETUP                      :
          :.................................................:
          :  # basis functions                 240          :
          :  # atomic orbitals                 240          :
          :  # shells                          120          :
          :  # electrons                       240          :
          :  max. iterations                   250          :
          :  Hamiltonian                  GFN2-xTB          :
          :  restarted?                      false          :
          :  GBSA solvation                  false          :
          :  PC potential                    false          :
          :  electronic temp.          300.0000000     K    :
          :  accuracy                    0.0500000          :
          :  -> integral cutoff          0.3801030E+02      :
          :  -> integral neglect         0.5000000E-09      :
          :  -> SCF convergence          0.5000000E-07 Eh   :
          :  -> wf. convergence          0.5000000E-05 e    :
          :  Broyden damping             0.4000000          :
          :  net charge                          0          :
          :  unpaired electrons                  0          :
          ...................................................

 iter      E             dE          RMSdq      gap      omega  full diag
   1   -130.9547607 -0.130955E+03  0.453E+00    1.76       0.0  T
   2   -130.9554373 -0.676576E-03  0.270E+00    1.76       1.0  T
   3   -130.9558207 -0.383372E-03  0.679E-02    1.75       1.0  T
   4   -130.9558236 -0.294706E-05  0.170E-02    1.75       1.0  T
   5   -130.9558237 -0.357942E-07  0.218E-03    1.75       5.9  T
   6   -130.9558234  0.247779E-06  0.150E-03    1.75       8.6  T
   7   -130.9558237 -0.285941E-06  0.117E-04    1.75     110.8  T
   8   -130.9558237 -0.719439E-09  0.441E-05    1.75     292.5  T
   9   -130.9558237 -0.260627E-10  0.181E-05    1.75     711.6  T

   *** convergence criteria satisfied after 9 iterations ***

         #    Occupation            Energy/Eh            Energy/eV
      -------------------------------------------------------------
         1        2.0000           -0.6986691             -19.0118
       ...           ...                  ...                  ...
       114        2.0000           -0.4218538             -11.4792
       115        2.0000           -0.4218528             -11.4792
       116        2.0000           -0.3900304             -10.6133
       117        2.0000           -0.3900298             -10.6133
       118        2.0000           -0.3900283             -10.6132
       119        2.0000           -0.3900276             -10.6132
       120        2.0000           -0.3900260             -10.6131 (HOMO)
       121                         -0.3258494              -8.8668 (LUMO)
       122                         -0.3258480              -8.8668
       123                         -0.3258468              -8.8667
       124                         -0.2974023              -8.0927
       125                         -0.2974003              -8.0927
       ...                                ...                  ...
       240                          0.6866359              18.6843
      -------------------------------------------------------------
                  HL-Gap            0.0641765 Eh            1.7463 eV
             Fermi-level           -0.3579377 Eh           -9.7400 eV

 SCC (total)                   0 d,  0 h,  0 min,  0.133 sec
 SCC setup                      ...        0 min,  0.000 sec (  0.362%)
 Dispersion                     ...        0 min,  0.002 sec (  1.383%)
 classical contributions        ...        0 min,  0.000 sec (  0.201%)
 integral evaluation            ...        0 min,  0.015 sec ( 11.157%)
 iterations                     ...        0 min,  0.103 sec ( 77.649%)
 molecular gradient             ...        0 min,  0.012 sec (  8.908%)
 printout                       ...        0 min,  0.000 sec (  0.304%)

         :::::::::::::::::::::::::::::::::::::::::::::::::::::
         ::                     SUMMARY                     ::
         :::::::::::::::::::::::::::::::::::::::::::::::::::::
         :: total energy            -128.463526729264 Eh    ::
         :: gradient norm              0.000044963781 Eh/a0 ::
         :: HOMO-LUMO gap              1.746332240417 eV    ::
         ::.................................................::
         :: SCC energy              -130.934786426269 Eh    ::
         :: -> isotropic ES           -0.002373166456 Eh    ::
         :: -> anisotropic ES          0.001926909588 Eh    ::
         :: -> anisotropic XC          0.032851109429 Eh    ::
         :: -> dispersion             -0.167022799192 Eh    ::
         :: repulsion energy           2.471259697005 Eh    ::
         :: add. restraining           0.000000000000 Eh    ::
         :: total charge               0.000000000000 e     ::
         :::::::::::::::::::::::::::::::::::::::::::::::::::::


Property printout bound to 'properties.out'

[...]
    146      -0.092317  -0.091003   0.048408   0.005412  -0.124890  -0.072718
    147       0.020218  -0.003579  -0.041563   0.022301   0.037180   0.028671
    148       0.002513   0.119014   0.149540  -0.026054  -0.051326  -0.186250
    149       0.030041   0.012335  -0.030533   0.039425   0.041341  -0.008423
    150      -0.024455   0.018123   0.076274  -0.020653  -0.053432  -0.073911
    151       0.009416  -0.088523  -0.137274   0.006650   0.055268   0.185151
    152      -0.025469  -0.025906   0.008626  -0.035198  -0.033288   0.036395
    153      -0.010091  -0.072160  -0.025719   0.085411   0.039121   0.014595
    154       0.013479   0.066220   0.024249  -0.066704  -0.033766  -0.034338
    155       0.025019  -0.101739  -0.098199   0.155229   0.092727  -0.063907
    156       0.113066   0.036036  -0.084502  -0.044768   0.072861  -0.062061
    157      -0.053620  -0.021088   0.064541   0.022282  -0.034292   0.026518
    158      -0.083752  -0.017621   0.217306  -0.010397  -0.085717   0.041145
    159      -0.132599  -0.031139   0.097627   0.037095  -0.094482   0.072493
    160       0.019936   0.010125  -0.003526  -0.017637   0.004859  -0.009787
    161       0.095932   0.007374  -0.206790   0.026582   0.103303  -0.050220
    162       0.123126  -0.031337   0.104345  -0.039144   0.091427  -0.065553
    163       0.019333  -0.010158   0.003966  -0.017701   0.004731  -0.009527
    164       0.078840  -0.007490   0.213220   0.022252   0.097033  -0.035798
    165      -0.110639   0.096662  -0.114914   0.177148   0.035041   0.064670
    166      -0.035834   0.050071  -0.036077   0.124049  -0.000389   0.021038
    167      -0.029950  -0.005924  -0.039623  -0.049471   0.010210   0.016361
    168       0.093555  -0.074054   0.109022  -0.148261  -0.008769  -0.054687
    169       0.055983  -0.061599   0.066778  -0.164812   0.014856  -0.030152
    170       0.042520  -0.007062   0.056332   0.018386  -0.012363  -0.026565
    171       0.011260  -0.040691  -0.008499   0.041681   0.018600   0.025223
    172      -0.006381   0.087457   0.052161  -0.086307  -0.056412  -0.034618
    173      -0.038101  -0.100896  -0.119854   0.139370   0.099616  -0.053731
    174       0.020218   0.003579   0.041563  -0.022301  -0.037180  -0.028671
    175       0.002513  -0.119014  -0.149540   0.026054   0.051326   0.186250
    176       0.030041  -0.012335   0.030533  -0.039425  -0.041341   0.008423
    177       0.134149  -0.104016   0.022399  -0.024020   0.104948  -0.055891
    178      -0.063192   0.185183   0.016473   0.029981  -0.035480   0.087441
    179      -0.056675   0.098071  -0.002628   0.015369  -0.039852   0.037070


The first frequency considered to be a vibration is 6
The total number of vibrations considered is 174


--------------------------
THERMOCHEMISTRY AT 298.15K
--------------------------

Temperature         ...   298.15 K
Pressure            ...     1.00 atm
Total Mass          ...   720.66 AMU
Quasi RRHO          ...     True
Cut-Off Frequency   ...     1.00 cm^-1

Throughout the following assumptions are being made:
  (1) The electronic state is orbitally nondegenerate
  (2) There are no thermally accessible electronically excited states
  (3) Hindered rotations indicated by low frequency modes are not
      treated as such but are treated as vibrations and this may
      cause some error
  (4) All equations used are the standard statistical mechanics
      equations for an ideal gas
  (5) All vibrations are strictly harmonic

freq.     254.69  E(vib)   ...       0.30 
freq.     254.70  E(vib)   ...       0.30 
freq.     254.70  E(vib)   ...       0.30 
freq.     254.85  E(vib)   ...       0.30 
freq.     254.96  E(vib)   ...       0.30 
freq.     332.50  E(vib)   ...       0.24 
freq.     332.51  E(vib)   ...       0.24 
freq.     332.92  E(vib)   ...       0.24 
freq.     339.38  E(vib)   ...       0.23 
freq.     339.39  E(vib)   ...       0.23 
freq.     339.55  E(vib)   ...       0.23 
freq.     340.06  E(vib)   ...       0.23 
freq.     390.63  E(vib)   ...       0.20 
freq.     390.88  E(vib)   ...       0.20 
freq.     391.01  E(vib)   ...       0.20 
freq.     391.02  E(vib)   ...       0.20 
freq.     391.14  E(vib)   ...       0.20 
freq.     415.32  E(vib)   ...       0.18 
freq.     415.33  E(vib)   ...       0.18 
freq.     415.34  E(vib)   ...       0.18 
freq.     415.42  E(vib)   ...       0.18 
freq.     416.20  E(vib)   ...       0.18 
freq.     476.51  E(vib)   ...       0.15 
freq.     476.51  E(vib)   ...       0.15 
freq.     476.59  E(vib)   ...       0.15 
freq.     477.21  E(vib)   ...       0.15 
freq.     498.54  E(vib)   ...       0.14 
freq.     498.56  E(vib)   ...       0.14 
freq.     499.05  E(vib)   ...       0.14 
freq.     526.09  E(vib)   ...       0.13 
freq.     526.20  E(vib)   ...       0.13 
freq.     526.21  E(vib)   ...       0.13 
freq.     526.45  E(vib)   ...       0.13 
freq.     527.21  E(vib)   ...       0.13 
freq.     527.27  E(vib)   ...       0.13 
freq.     533.85  E(vib)   ...       0.13 
freq.     534.31  E(vib)   ...       0.13 
freq.     534.32  E(vib)   ...       0.13 
freq.     543.72  E(vib)   ...       0.12 
freq.     543.86  E(vib)   ...       0.12 
freq.     544.17  E(vib)   ...       0.12 
freq.     549.41  E(vib)   ...       0.12 
freq.     549.60  E(vib)   ...       0.12 
freq.     549.61  E(vib)   ...       0.12 
freq.     549.70  E(vib)   ...       0.12 
freq.     622.87  E(vib)   ...       0.09 
freq.     622.88  E(vib)   ...       0.09 
freq.     623.02  E(vib)   ...       0.09 
freq.     641.42  E(vib)   ...       0.09 
freq.     641.78  E(vib)   ...       0.09 
freq.     641.83  E(vib)   ...       0.09 
freq.     641.84  E(vib)   ...       0.09 
freq.     642.02  E(vib)   ...       0.09 
freq.     664.39  E(vib)   ...       0.08 
freq.     664.39  E(vib)   ...       0.08 
freq.     664.59  E(vib)   ...       0.08 
freq.     674.84  E(vib)   ...       0.08 
freq.     674.84  E(vib)   ...       0.08 
freq.     674.85  E(vib)   ...       0.08 
freq.     675.00  E(vib)   ...       0.08 
freq.     675.12  E(vib)   ...       0.08 
freq.     701.87  E(vib)   ...       0.07 
freq.     701.87  E(vib)   ...       0.07 
freq.     701.88  E(vib)   ...       0.07 
freq.     701.89  E(vib)   ...       0.07 
freq.     702.14  E(vib)   ...       0.07 
freq.     706.06  E(vib)   ...       0.07 
freq.     706.07  E(vib)   ...       0.07 
freq.     706.15  E(vib)   ...       0.07 
freq.     706.42  E(vib)   ...       0.07 
freq.     719.63  E(vib)   ...       0.07 
freq.     719.72  E(vib)   ...       0.07 
freq.     719.86  E(vib)   ...       0.07 
freq.     719.86  E(vib)   ...       0.07 
freq.     734.98  E(vib)   ...       0.06 
freq.     735.01  E(vib)   ...       0.06 
freq.     735.23  E(vib)   ...       0.06 
freq.     735.25  E(vib)   ...       0.06 
freq.     736.53  E(vib)   ...       0.06 
freq.     736.66  E(vib)   ...       0.06 
freq.     736.79  E(vib)   ...       0.06 
freq.     755.50  E(vib)   ...       0.06 
freq.     755.69  E(vib)   ...       0.06 
freq.     755.77  E(vib)   ...       0.06 
freq.     794.68  E(vib)   ...       0.05 
freq.     794.97  E(vib)   ...       0.05 
freq.     794.97  E(vib)   ...       0.05 
freq.     815.31  E(vib)   ...       0.05 
freq.     815.32  E(vib)   ...       0.05 
freq.     815.32  E(vib)   ...       0.05 
freq.     815.43  E(vib)   ...       0.05 
freq.     815.46  E(vib)   ...       0.05 
freq.     895.51  E(vib)   ...       0.03 
freq.     994.62  E(vib)   ...       0.02 
freq.     994.63  E(vib)   ...       0.02 
freq.     994.63  E(vib)   ...       0.02 
freq.     994.71  E(vib)   ...       0.02 
freq.    1012.23  E(vib)   ...       0.02 
freq.    1012.31  E(vib)   ...       0.02 
freq.    1012.32  E(vib)   ...       0.02 
freq.    1127.27  E(vib)   ...       0.01 
freq.    1127.34  E(vib)   ...       0.01 
freq.    1127.35  E(vib)   ...       0.01 
freq.    1127.36  E(vib)   ...       0.01 
freq.    1127.37  E(vib)   ...       0.01 
freq.    1128.71  E(vib)   ...       0.01 
freq.    1128.87  E(vib)   ...       0.01 
freq.    1128.88  E(vib)   ...       0.01 
freq.    1128.90  E(vib)   ...       0.01 
freq.    1217.31  E(vib)   ...       0.01 
freq.    1217.47  E(vib)   ...       0.01 
freq.    1217.48  E(vib)   ...       0.01 
freq.    1217.50  E(vib)   ...       0.01 
freq.    1217.52  E(vib)   ...       0.01 
freq.    1225.26  E(vib)   ...       0.01 
freq.    1225.34  E(vib)   ...       0.01 
freq.    1225.35  E(vib)   ...       0.01 
freq.    1227.67  E(vib)   ...       0.01 
freq.    1227.75  E(vib)   ...       0.01 
freq.    1227.78  E(vib)   ...       0.01 
freq.    1284.04  E(vib)   ...       0.01 
freq.    1284.28  E(vib)   ...       0.01 
freq.    1284.30  E(vib)   ...       0.01 
freq.    1284.30  E(vib)   ...       0.01 
freq.    1284.33  E(vib)   ...       0.01 
freq.    1285.42  E(vib)   ...       0.01 
freq.    1285.46  E(vib)   ...       0.01 
freq.    1285.48  E(vib)   ...       0.01 
freq.    1298.83  E(vib)   ...       0.01 
freq.    1298.84  E(vib)   ...       0.01 
freq.    1298.85  E(vib)   ...       0.01 
freq.    1298.87  E(vib)   ...       0.01 
freq.    1326.10  E(vib)   ...       0.01 
freq.    1326.17  E(vib)   ...       0.01 
freq.    1326.17  E(vib)   ...       0.01 
freq.    1326.22  E(vib)   ...       0.01 
freq.    1339.60  E(vib)   ...       0.01 
freq.    1339.72  E(vib)   ...       0.01 
freq.    1339.73  E(vib)   ...       0.01 
freq.    1339.74  E(vib)   ...       0.01 
freq.    1339.76  E(vib)   ...       0.01 
freq.    1346.12  E(vib)   ...       0.01 
freq.    1346.19  E(vib)   ...       0.01 
freq.    1346.20  E(vib)   ...       0.01 
freq.    1442.65  E(vib)   ...       0.00 
freq.    1442.72  E(vib)   ...       0.00 
freq.    1442.77  E(vib)   ...       0.00 
freq.    1442.79  E(vib)   ...       0.00 
freq.    1455.53  E(vib)   ...       0.00 
freq.    1455.65  E(vib)   ...       0.00 
freq.    1455.66  E(vib)   ...       0.00 
freq.    1455.67  E(vib)   ...       0.00 
freq.    1455.67  E(vib)   ...       0.00 
freq.    1481.91  E(vib)   ...       0.00 
freq.    1481.93  E(vib)   ...       0.00 
freq.    1481.93  E(vib)   ...       0.00 
freq.    1499.46  E(vib)   ...       0.00 
freq.    1499.56  E(vib)   ...       0.00 
freq.    1499.61  E(vib)   ...       0.00 
freq.    1499.62  E(vib)   ...       0.00 
freq.    1519.44  E(vib)   ...       0.00 
freq.    1531.33  E(vib)   ...       0.00 
freq.    1531.44  E(vib)   ...       0.00 
freq.    1531.44  E(vib)   ...       0.00 
freq.    1550.79  E(vib)   ...       0.00 
freq.    1550.88  E(vib)   ...       0.00 
freq.    1550.89  E(vib)   ...       0.00 
freq.    1550.90  E(vib)   ...       0.00 
freq.    1550.91  E(vib)   ...       0.00 
freq.    1561.09  E(vib)   ...       0.00 
freq.    1561.19  E(vib)   ...       0.00 
freq.    1561.21  E(vib)   ...       0.00 
freq.    1561.21  E(vib)   ...       0.00 
freq.    1561.22  E(vib)   ...       0.00 

------------
INNER ENERGY
------------

The inner energy is: U= E(el) + E(ZPE) + E(vib) + E(rot) + E(trans)
    E(el)   - is the total energy from the electronic structure calculation
              = E(kin-el) + E(nuc-el) + E(el-el) + E(nuc-nuc)
    E(ZPE)  - the the zero temperature vibrational energy from the frequency calculation
    E(vib)  - the the finite temperature correction to E(ZPE) due to population
              of excited vibrational states
    E(rot)  - is the rotational thermal energy
    E(trans)- is the translational thermal energy

Summary of contributions to the inner energy U:
Electronic energy                ...   -128.46352674 Eh
Zero point energy                ...      0.36766586 Eh     230.71 kcal/mol
Thermal vibrational correction   ...      0.01913077 Eh      12.00 kcal/mol
Thermal rotational correction    ...      0.00141627 Eh       0.89 kcal/mol
Thermal translational correction ...      0.00141627 Eh       0.89 kcal/mol
-----------------------------------------------------------------------
Total thermal energy                   -128.07389757 Eh


Summary of corrections to the electronic energy:
(perhaps to be used in another calculation)
Total thermal correction                  0.02196331 Eh      13.78 kcal/mol
Non-thermal (ZPE) correction              0.36766586 Eh     230.71 kcal/mol
-----------------------------------------------------------------------
Total correction                          0.38962917 Eh     244.50 kcal/mol


--------
ENTHALPY
--------

The enthalpy is H = U + kB*T
                kB is Boltzmann's constant
Total thermal energy              ...   -128.07389757 Eh 
Thermal Enthalpy correction       ...      0.00094421 Eh       0.59 kcal/mol
-----------------------------------------------------------------------
Total Enthalpy                    ...   -128.07295336 Eh


WARNING (ORCA/SYM): The number of Z matrix atoms does not agree with
the number of centers in the basis set. The point group will therefore
be determined without considering basis set information.


Note: Rotational entropy computed according to Herzberg 
Infrared and Raman Spectra, Chapter V,1, Van Nostrand Reinhold, 1945 
Point Group:  Ih, Symmetry Number:  60  
Rotational constants in cm-1:     0.002825     0.002825     0.002825 

Vibrational entropy computed according to the QRRHO of S. Grimme
Chem.Eur.J. 2012 18 9955 using a reference frequency of 100.0 cm-1


-------
ENTROPY
-------

The entropy contributions are T*S = T*(S(el)+S(vib)+S(rot)+S(trans))
     S(el)   - electronic entropy
     S(vib)  - vibrational entropy
     S(rot)  - rotational entropy
     S(trans)- translational entropy
The entropies will be listed as multiplied by the temperature to get
units of energy

Electronic entropy                ...      0.00000000 Eh      0.00 kcal/mol
Vibrational entropy               ...      0.02725211 Eh     17.10 kcal/mol
Rotational entropy                ...      0.01395743 Eh      8.76 kcal/mol
Translational entropy             ...      0.02166837 Eh     13.60 kcal/mol
-----------------------------------------------------------------------
Final entropy term                ...      0.06287791 Eh     39.46 kcal/mol

In case the symmetry of your molecule has not been determined correctly
or in case you have a reason to use a different symmetry number we print 
out the resulting rotational entropy values for sn=1,12:

 non-linear molecules -----------------------------------
|  sn= 1 | S(rot)=       0.01782323 Eh     11.18 kcal/mol|
|  sn= 2 | S(rot)=       0.01716877 Eh     10.77 kcal/mol|
|  sn= 3 | S(rot)=       0.01678594 Eh     10.53 kcal/mol|
|  sn= 4 | S(rot)=       0.01651432 Eh     10.36 kcal/mol|
|  sn= 5 | S(rot)=       0.01630363 Eh     10.23 kcal/mol|
|  sn= 6 | S(rot)=       0.01613149 Eh     10.12 kcal/mol|
|  sn= 7 | S(rot)=       0.01598594 Eh     10.03 kcal/mol|
|  sn= 8 | S(rot)=       0.01585986 Eh      9.95 kcal/mol|
|  sn= 9 | S(rot)=       0.01574865 Eh      9.88 kcal/mol|
|  sn=10 | S(rot)=       0.01564917 Eh      9.82 kcal/mol|
|  sn=11 | S(rot)=       0.01555918 Eh      9.76 kcal/mol|
|  sn=12 | S(rot)=       0.01547703 Eh      9.71 kcal/mol|
 linear molecules ---------------------------------------
|  Dinfh | S(rot)=       0.01086742 Eh      6.82 kcal/mol|
|  Cinfv | S(rot)=       0.01152188 Eh      7.23 kcal/mol|
 --------------------------------------------------------


-------------------
GIBBS FREE ENERGY
-------------------

The Gibbs free energy is G = H - T*S

Total enthalpy                    ...   -128.07295336 Eh 
Total entropy correction          ...     -0.06287791 Eh    -39.46 kcal/mol
-----------------------------------------------------------------------
Final Gibbs free energy         ...   -128.13583127 Eh

For completeness - the Gibbs free energy minus the electronic energy
G-E(el)                           ...      0.32769547 Eh    205.63 kcal/mol


--------------------------------
SUGGESTED CITATIONS FOR THIS RUN
--------------------------------

Below you find a list of papers that are relevant to this ORCA run
We neither can nor want to force you to cite these papers, but we appreciate if you do
You receive ORCA, which is the product of decades of hard work by many enthusiastic individuals, for free
The only thing we kindly ask in return is that you cite our papers,
We deeply appreciate it, if you show your appreciation for ORCA by not just citing the generic ORCA reference.

Please note that relegating all ORCA citations to the supporting information does *not* help us.
SI sections are not indexed - citations you put there will not count into any citation statistics
But we need these citations in order to attract the funding resources that allow us to do what we are doing

Therefore, if you are a happy ORCA user, please consider citing a few of the papers listed below in the main body of your paper

In addition to the list printed below, the program has created the file geom_freq.bibtex that contains the list in bibtex format
You can import this file easily into all common literature databanks and citation aid programs


List of essential papers. We consider these as the minimum necessary citations

  1. Bannwarth,C.; Ehlert,S.; Grimme,S.
     GFN2-xTB—An Accurate and Broadly Parametrized Self-Consistent Tight-Binding Quantum Chemical Method with Multipole Electrostatics and Density-Dependent Dispersion Contributions
     J. Chem. Theory Comput., 2019 15(3)1652-1671
     doi.org/10.1021/acs.jctc.8b01176
  2. Neese,F.
     Software update: the ORCA program system, version 5.0
     WIRES Comput. Molec. Sci., 2022 12(1)e1606
     doi.org/10.1002/wcms.1606

List of papers to cite with high priority. The work reported in these papers was absolutely
necessary for this run to complete.
Our perspective: the developers of density functionals and basis sets usually get cited in chemistry papers
Good! But without the algorithms to do something with them, the functionals or basis sets would not do anything.
Hence, in our opinion, the algorithm design and method developments papers are equally worthy of getting cited

  1. Bykov,D.; Petrenko,T.; Izsak,R.; Kossmann,S.; Becker,U.; Valeev,E.; Neese,F.
     Efficient implementation of the analytic second derivatives of Hartree-Fock and hybrid DFT energies: a detailed analysis of different approximations
     Molec. Phys., 2015 113 1961-1977
     doi.org/10.1080/00268976.2015.1025114
  2. Bannwarth,C.; Caldeweyher,E.; Ehlert,S.; Hansen,A.; Pracht,P.; Seibert,J.; Spicher,S.; Grimme,S.
     Extended tight-binding quantum chemistry methods
     WIRES Comput. Molec. Sci., 2020 11(2)e1493
     doi.org/10.1002/wcms.1493

List of suggested additional citations. These are papers that are important in the 'surrounding' of 
of this run, or papers that preceded the highly important papers. If you like your results we are grateful for a citation.

  1. Neese,F.
     The ORCA program system
     WIRES Comput. Molec. Sci., 2012 2(1)73-78
     doi.org/10.1002/wcms.81
  2. Neese,F.
     Software update: the ORCA program system, version 4.0
     WIRES Comput. Molec. Sci., 2018 8(1)1-6
     doi.org/10.1002/wcms.1327
  3. Neese,F.; Wennmohs,F.; Becker,U.; Riplinger,C.
     The ORCA quantum chemistry program package
     J. Chem. Phys., 2020 152 Art. No. L224108
     doi.org/10.1063/5.0004608

List of optional additional citations

  1. Neese,F.
     Approximate second-order SCF convergence for spin unrestricted wavefunctions
     Chem. Phys. Lett., 2000 325(1-3)93-98
     doi.org/10.1016/s0009-2614(00)00662-x

Timings for individual modules:

Sum of individual times          ...        5.539 sec (=   0.092 min)
Geometry relaxation              ...        0.425 sec (=   0.007 min)   7.7 %
XTB module                       ...        5.113 sec (=   0.085 min)  92.3 %
                             ****ORCA TERMINATED NORMALLY****
TOTAL RUN TIME: 0 days 0 hours 0 minutes 12 seconds 876 msec
