#INFO: **** input file is /project/lgagliardi/helenclifford/practice_rcc/cybertraining/workshop_work/eom_ccsd_practice.py ****
import numpy as np
from pyscf import gto, scf, cc
from pyscf import lib
from pyscf.tools import cubegen
from pyscf.tools import molden

mol = gto.Mole()
#Geometry for napthalene
mol.atom = '''
C 2.41229 0.75716 0.00000
C 2.44089 -0.65953 0.00000
C 1.27099 -1.37135 0.00000
C 0.01433 -0.70687 -0.00000
C -0.01412 0.70690 -0.00000
C 1.21477 1.42144 0.00000
C -1.27093 1.37111 -0.00000
C -2.44092 0.65942 -0.00000
C -2.41252 -0.75728 -0.00000
C -1.21473 -1.42112 -0.00000
H 3.33396 1.30672 0.00000
H 3.38393 -1.17155 0.00000
H 1.29099 -2.44499 0.00000
H 1.19157 2.49502 0.00000
H -1.29097 2.44474 -0.00000
H -3.38391 1.17153 -0.00000
H -3.33414 -1.30692 -0.00000
H -1.19148 -2.49469 -0.00000
'''
mol.basis = 'aug-cc-pvdz'
mol.verbose = 4
mol.charge = 0
mol.build()

mf = scf.RHF(mol).density_fit("aug-cc-pvdz-jkfit")
mf.kernel()

mycc = cc.CCSD(mf).set_frozen().density_fit("aug-cc-pvdz-ri")
mycc.verbose = 4
mycc.kernel()

eS = mycc.eomee_ccsd_singlet(nroots=10)[0]

for state in range(len(eS)):
    print ("State #%d, dE = %9.6f (a.u.), %6.3f (eV)" % (state+1, eS[state], eS[state] * 27.2114))
#INFO: ******************** input file end ********************


System: uname_result(system='Linux', node='midway3-0542.rcc.local', release='4.18.0-305.3.1.el8.x86_64', version='#1 SMP Tue Jun 1 16:14:33 UTC 2021', machine='x86_64')  Threads 16
Python 3.12.2 | packaged by conda-forge | (main, Feb 16 2024, 20:50:58) [GCC 12.3.0]
numpy 2.3.4  scipy 1.16.3  h5py 3.16.0
Date: Fri Jul 10 13:53:00 2026
PySCF version 2.11.0
PySCF path  /home/helenclifford/project-lgagliardi/practice_rcc/software/pyscf
GIT ORIG_HEAD c744d505e4d4e988d4c032e9b303b73edec74169
GIT HEAD (branch dynamics-pyscf) f520f5381c0b41f716d847009817cbc64e52c0d5

[ENV] PYSCF_TMPDIR /scratch/local/jobs/51708837
[ENV] PYSCF_MAX_MEMORY 56000
[ENV] PYSCF_EXT_PATH /home/helenclifford/project-lgagliardi/practice_rcc/software/pyscf-forge:/home/helenclifford/project-lgagliardi/practice_rcc/software/pyscf-forge:
[CONFIG] conf_file None
[INPUT] verbose = 4
[INPUT] num. atoms = 18
[INPUT] num. electrons = 68
[INPUT] charge = 0
[INPUT] spin (= nelec alpha-beta = 2S) = 0
[INPUT] symmetry False subgroup None
[INPUT] Mole.unit = angstrom
[INPUT] Symbol           X                Y                Z      unit          X                Y                Z       unit  Magmom
[INPUT]  1 C      2.412290000000   0.757160000000   0.000000000000 AA    4.558567433027   1.430825032476   0.000000000000 Bohr   0.0
[INPUT]  2 C      2.440890000000  -0.659530000000   0.000000000000 AA    4.612613600190  -1.246331070934   0.000000000000 Bohr   0.0
[INPUT]  3 C      1.270990000000  -1.371350000000   0.000000000000 AA    2.401823007061  -2.591475920922   0.000000000000 Bohr   0.0
[INPUT]  4 C      0.014330000000  -0.706870000000   0.000000000000 AA    0.027079775365  -1.335790705671   0.000000000000 Bohr   0.0
[INPUT]  5 C     -0.014120000000   0.706900000000   0.000000000000 AA   -0.026682932879   1.335847397455   0.000000000000 Bohr   0.0
[INPUT]  6 C      1.214770000000   1.421440000000   0.000000000000 AA    2.295582604338   2.686132302502   0.000000000000 Bohr   0.0
[INPUT]  7 C     -1.270930000000   1.371110000000   0.000000000000 AA   -2.401709623493   2.591022386652   0.000000000000 Bohr   0.0
[INPUT]  8 C     -2.440920000000   0.659420000000   0.000000000000 AA   -4.612670291973   1.246123201061   0.000000000000 Bohr   0.0
[INPUT]  9 C     -2.412520000000  -0.757280000000   0.000000000000 AA   -4.559002070036  -1.431051799611   0.000000000000 Bohr   0.0
[INPUT] 10 C     -1.214730000000  -1.421120000000   0.000000000000 AA   -2.295507015293  -2.685527590142   0.000000000000 Bohr   0.0
[INPUT] 11 H      3.333960000000   1.306720000000   0.000000000000 AA    6.300271310255   2.469342921492   0.000000000000 Bohr   0.0
[INPUT] 12 H      3.383930000000  -1.171550000000   0.000000000000 AA    6.394700924699  -2.213908641234   0.000000000000 Bohr   0.0
[INPUT] 13 H      1.290990000000  -2.444990000000   0.000000000000 AA    2.439617529552  -4.620361477300   0.000000000000 Bohr   0.0
[INPUT] 14 H      1.191570000000   2.495020000000   0.000000000000 AA    2.251740958248   4.714904475312   0.000000000000 Bohr   0.0
[INPUT] 15 H     -1.290970000000   2.444740000000   0.000000000000 AA   -2.439579735030   4.619889045769   0.000000000000 Bohr   0.0
[INPUT] 16 H     -3.383910000000   1.171530000000   0.000000000000 AA   -6.394663130177   2.213870846712   0.000000000000 Bohr   0.0
[INPUT] 17 H     -3.334140000000  -1.306920000000   0.000000000000 AA   -6.300611460957  -2.469720866717   0.000000000000 Bohr   0.0
[INPUT] 18 H     -1.191480000000  -2.494690000000   0.000000000000 AA   -2.251570882897  -4.714280865691   0.000000000000 Bohr   0.0

nuclear repulsion = 459.063529704216
number of shells = 120
number of NR pGTOs = 438
number of NR cGTOs = 302
basis = aug-cc-pvdz
ecp = {}
CPU time:         2.40


******** <class 'pyscf.df.df_jk.DFRHF'> ********
method = DFRHF
initial guess = minao
damping factor = 0
level_shift factor = 0
DIIS = <class 'pyscf.scf.diis.CDIIS'>
diis_start_cycle = 1
diis_space = 8
diis_damp = 0
SCF conv_tol = 1e-09
SCF conv_tol_grad = None
SCF max_cycles = 50
direct_scf = False
chkfile to save SCF result = /scratch/local/jobs/51708837/tmpvt_xs4ze
max_memory 56000 MB (current use 93 MB)
Set gradient conv threshold to 3.16228e-05
Initial guess from minao.
******** <class 'pyscf.df.df.DF'> ********
auxbasis = aug-cc-pvdz-jkfit
max_memory = 56000
init E= -386.712388048694
  HOMO = -0.200959435123658  LUMO = -0.0075017203470773
cycle= 1 E= -383.285944000973  delta_E= 3.43  |g|= 0.513  |ddm|= 56.9
  HOMO = -0.309949621739421  LUMO = 0.0343605979951994
cycle= 2 E= -383.385232210646  delta_E= -0.0993  |g|= 0.142  |ddm|= 13.4
  HOMO = -0.280487776784779  LUMO = 0.0356469933103595
cycle= 3 E= -383.392651541224  delta_E= -0.00742  |g|= 0.0582  |ddm|= 5.54
  HOMO = -0.290258505969035  LUMO = 0.0354070041003203
cycle= 4 E= -383.393654918598  delta_E= -0.001  |g|= 0.0137  |ddm|= 1.26
  HOMO = -0.290839572378949  LUMO = 0.0353649092733573
cycle= 5 E= -383.39372289087  delta_E= -6.8e-05  |g|= 0.00385  |ddm|= 0.218
  HOMO = -0.29064686331903  LUMO = 0.0353675803880941
cycle= 6 E= -383.393734275778  delta_E= -1.14e-05  |g|= 0.00171  |ddm|= 0.0709
  HOMO = -0.290787292955836  LUMO = 0.035362955993349
cycle= 7 E= -383.393737487521  delta_E= -3.21e-06  |g|= 0.000624  |ddm|= 0.0393
  HOMO = -0.29090464964892  LUMO = 0.035361489187478
cycle= 8 E= -383.39373804315  delta_E= -5.56e-07  |g|= 0.000196  |ddm|= 0.0185
  HOMO = -0.290906659434816  LUMO = 0.0353619669940725
cycle= 9 E= -383.393738077067  delta_E= -3.39e-08  |g|= 4.2e-05  |ddm|= 0.00417
  HOMO = -0.290912140764976  LUMO = 0.0353622228196354
cycle= 10 E= -383.393738078814  delta_E= -1.75e-09  |g|= 1.04e-05  |ddm|= 0.00226
  HOMO = -0.290913352866599  LUMO = 0.0353623068990815
cycle= 11 E= -383.393738078908  delta_E= -9.42e-11  |g|= 1.48e-06  |ddm|= 0.000426
  HOMO = -0.2909133152983  LUMO = 0.0353623146092778
Extra cycle  E= -383.393738078913  delta_E= -4.43e-12  |g|= 5.4e-07  |ddm|= 5.49e-05
converged SCF energy = -383.393738078913

******** <class 'pyscf.cc.dfccsd.RCCSD'> ********
CC2 = 0
CCSD nocc = 24, nmo = 292
frozen orbitals 10
max_cycle = 50
direct = 0
conv_tol = 1e-07
conv_tol_normt = 1e-05
diis_space = 6
diis_start_cycle = 0
diis_start_energy_diff = 1e+09
max_memory 56000 MB (current use 686 MB)
******** <class 'pyscf.df.df.DF'> ********
auxbasis = auxmol.basis = aug-cc-pvdz-jkfit
max_memory = 56000
Init t2, MP2 energy = -384.733217183217  E_corr(MP2) -1.33947910430469
Init E_corr(RCCSD) = -1.33947910430498
cycle = 1  E_corr(RCCSD) = -1.33704290945493  dE = 0.00243619485  norm(t1,t2) = 0.0949637
cycle = 2  E_corr(RCCSD) = -1.37866964744093  dE = -0.041626738  norm(t1,t2) = 0.0335156
cycle = 3  E_corr(RCCSD) = -1.37870106178079  dE = -3.14143399e-05  norm(t1,t2) = 0.0140132
cycle = 4  E_corr(RCCSD) = -1.38374297850405  dE = -0.00504191672  norm(t1,t2) = 0.00691075
cycle = 5  E_corr(RCCSD) = -1.38428603530725  dE = -0.000543056803  norm(t1,t2) = 0.00194011
cycle = 6  E_corr(RCCSD) = -1.38397481897529  dE = 0.000311216332  norm(t1,t2) = 0.000788535
cycle = 7  E_corr(RCCSD) = -1.38392374010052  dE = 5.10788748e-05  norm(t1,t2) = 0.000204184
cycle = 8  E_corr(RCCSD) = -1.38394301712456  dE = -1.9277024e-05  norm(t1,t2) = 9.62925e-05
cycle = 9  E_corr(RCCSD) = -1.38394527290258  dE = -2.25577802e-06  norm(t1,t2) = 4.30774e-05
cycle = 10  E_corr(RCCSD) = -1.38394810743567  dE = -2.83453309e-06  norm(t1,t2) = 1.85045e-05
cycle = 11  E_corr(RCCSD) = -1.38394811962031  dE = -1.21846491e-08  norm(t1,t2) = 8.4175e-06
RCCSD converged
E(RCCSD) = -384.777686198533  E_corr = -1.383948119620314

******** <class 'pyscf.cc.eom_rccsd.EOMEESinglet'> ********
max_space = 20
max_cycle = 50
conv_tol = 1e-07
partition = None
max_memory 56000 MB (current use 1685 MB)
EOM-CCSD root 0 E = 0.1646655197003578  qpwt = 0.907433  conv = True
EOM-CCSD root 1 E = 0.1884911882305164  qpwt = 0.939652  conv = True
EOM-CCSD root 2 E = 0.2072034020252451  qpwt = 0.95201  conv = True
EOM-CCSD root 3 E = 0.2221250515938299  qpwt = 0.953081  conv = True
EOM-CCSD root 4 E = 0.2230642916959352  qpwt = 0.951627  conv = True
EOM-CCSD root 5 E = 0.2252938117981797  qpwt = 0.934732  conv = True
EOM-CCSD root 6 E = 0.2261158902278259  qpwt = 0.901021  conv = True
EOM-CCSD root 7 E = 0.2314534754046101  qpwt = 0.94671  conv = True
EOM-CCSD root 8 E = 0.2349028774044204  qpwt = 0.937937  conv = True
EOM-CCSD root 9 E = 0.2433690202277251  qpwt = 0.951412  conv = False
State #1, dE =  0.164666 (a.u.),  4.481 (eV)
State #2, dE =  0.188491 (a.u.),  5.129 (eV)
State #3, dE =  0.207203 (a.u.),  5.638 (eV)
State #4, dE =  0.222125 (a.u.),  6.044 (eV)
State #5, dE =  0.223064 (a.u.),  6.070 (eV)
State #6, dE =  0.225294 (a.u.),  6.131 (eV)
State #7, dE =  0.226116 (a.u.),  6.153 (eV)
State #8, dE =  0.231453 (a.u.),  6.298 (eV)
State #9, dE =  0.234903 (a.u.),  6.392 (eV)
State #10, dE =  0.243369 (a.u.),  6.622 (eV)
