   This run of MOLCAS is using the pymolcas driver

                             OPE
                             OPE          NMOL  CASOP  ENMOLC A   SO
                 OPE        NMOLC        AS  OP EN  MO LC     AS  OP
                OPENM       OL CA        SO  PE NM  OL CA     SOP EN
                OP EN      MO   LC       AS  OP ENMOL  CASO   PENMOL
                OP  EN     MO   LC       AS  OP EN     MO     LC ASO
               OP   E  NMOL  C  AS       OP  EN MO     LC     AS  OP
               OP  E   NMO   LC AS        OPEN  MO     LCASOP EN   M
               O  PEN   MO  LCA  SO
            OPE   NMO   L   CAS    OP
        OPENMOL  CASOP     ENMOL   CASOPE
     OPENMOLCA   SOPENMOLCASOPEN   MOLCASOPE
    OPENMOLCAS   OP           EN   MOL    CAS
    OPENMOLCAS       OP  ENM        O     LCA
    OPENMOLCAS    OPEN  MOLCASO     P  E  NMO
    OPENMOLCAS     OP               E  N  MOL
    OPENMOLCA   SO           PENM   O  L  CAS    OPEN    MO    LCAS
    OPENMOLCA   SOP           ENM   O  L  CAS   OP  EN  MOLC  AS   O
    OPENMOLCA   SOPE           NM      O  LCA   S      OP  EN MO
    OPENMOLC                AS         O  PEN   M      OL  CA  SOPE
    OPENMO        LCASOPE  NMOL        C  ASO   P      ENMOLC     AS
    OPE     NMO      LCA  SO     P     E   NM   OL  CA SO  PE N   MO
          OPENMOLCA            SOPE   NMO        LCAS  O    P  ENMO
     OPENMOLCASOPENMOLCASOPENMOLCASOPENMOLCA
        OPENMOLCASOPENMOLCASOPENMOLCASOPE
            OPENMOLCASOPENMOLCASOPENM
               OPENMOLCASOPENMOLCA        version: 26.02
                   OPENMOLCASO
                       OPE                tag: 275-g15bc02d80

 OpenMolcas is free software; you can redistribute it and/or modify it
 under the terms of the GNU Lesser General Public License version 2.1.
 OpenMolcas is distributed in the hope that it will be useful, but it
 is provided "as is" and without any express or implied warranties.
 For more details see the full text of the license in the file
 LICENSE or in <http://www.gnu.org/licenses/>.

                 Copyright (C) The OpenMolcas Authors
           For the author list and the recommended citation,
                   consult the file CONTRIBUTORS.md

           *************************************************
           * pymolcas version py2.30                       *
           *   build 32e04b2d929c5171d3f97b50d75b0e6d      *
           *   (after the EMIL interpreter by V. Veryazov) *
           *************************************************

configuration info
------------------
Host name: xeonmax (Linux)
C Compiler ID: Intel
C flags: -std=gnu99 -gcc-sys
Fortran Compiler ID: Intel
Fortran flags: -fpp -i8 -heap-arrays
Definitions: _MOLCAS_;_I8_;_LINUX_;_MOLCAS_MPP_;_SCALAPACK_;_GA_
Parallel: ON (GA=ON)


   -------------------------------------------------------------------
  |
  |           Project: Test
  |    Submitted from: /gpfs/scratch/amehmood/test
  |      Scratch area: /gpfs/scratch/amehmood/test/scratch/Test
  |   Save outputs to: /gpfs/scratch/amehmood/test
  |            Molcas: /gpfs/software/openmolcas/26.02/molcas
  |
  | Scratch area is NOT empty
  |
  |    MOLCAS_DRIVER = /gpfs/software/openmolcas/26.02/molcas/pymolcas
  |   MOLCAS_MAXITER = 900
  |    MOLCAS_MOLDEN = YES
  |    MOLCAS_NPROCS = 1
  |     MOLCAS_PRINT = NORMAL
  |    MOLCAS_SOURCE = /gpfs/software/openmolcas/26.02/molcas
  | MOLCAS_STRUCTURE = 0
  |      MOLCAS_TRAP = YES
  |
   -------------------------------------------------------------------

++ ---------   Input file   ---------

&GATEWAY
  Coord
  12
  Uracil S0 planar (oxo form)
  N      -1.464000     0.099000     0.000000
  C      -1.031000    -1.198000     0.000000
  N       0.336000    -1.380000     0.000000
  C       1.252000    -0.347000     0.000000
  C       0.731000     0.984000     0.000000
  C      -0.585000     1.169000     0.000000
  O      -1.806000    -2.117000     0.000000
  O       2.460000    -0.524000     0.000000
  H      -2.450000     0.290000     0.000000
  H       0.704000    -2.322000     0.000000
  H       1.430000     1.807000     0.000000
  H      -1.030000     2.155000     0.000000
  Basis = aug-cc-pVDZ
  Group = NoSym
  RICD

&SEWARD

&SCF
  Charge = 0
  Spin   = 1

&RASSCF
  Title    = Uracil neutral SA-3 CAS(14,10)
  Symmetry = 1
  Nactel   = 14 0 0
  Spin     = 1
  Inactive = 22
  Ras2     = 10
  ciroot   = 3 3 1

>>> COPY $WorkDir/$Project.JobIph $WorkDir/JOB001

&RASSCF
  Title    = Uracil cation CAS(13,10) SA-20-D
  Symmetry = 1
  Nactel   = 13 0 0
  Spin     = 2
  Inactive = 22
  Ras2     = 10
  ciroot   = 20 20 1

>>> COPY $WorkDir/$Project.JobIph $WorkDir/JOB002

&RASSI
  NrOfJobIphs = 2 2 20
  1 2
  1 2 3 4 5 6 7 8 9 10 11 12 13 14 15 16 17 18 19 20
  SUBSets = 2
  EJob
  DYSOn
  DYSExport
  1 0
  CIPRint

-- ----------------------------------

--- Start Module: gateway at Mon Jun 22 02:27:39 2026 ---
 
()()()()()()()()()()()()()()()()()()()()()()()()()()()()()()()()()()()()()()()()()()()()()()()()()()

                                              &GATEWAY

                       only a single process is used, running in SERIAL mode
                       available to each process: 80 GB of memory, 1 thread?
                                            pid: 695482
()()()()()()()()()()()()()()()()()()()()()()()()()()()()()()()()()()()()()()()()()()()()()()()()()()
 
 
++    Symmetry information:
      ---------------------
 
                    Character Table for C1 
 
                             E  
                    a        1  x, y, xy, Rz, z, xz, Ry, yz, Rx, I
--
 
 
++    Basis set information:
      ----------------------
 
 
      Basis set label: N.AUG-CC-PVDZ.........
 
      Electronic valence basis set:
      ------------------
      Associated Effective Charge   7.000000 au
      Associated Actual Charge      7.000000 au
      Nuclear Model: Point charge
 
      Shell  nPrim  nBasis  Cartesian Spherical Contaminant
         s      10       4        X                  
         p       5       3        X                  
         d       2       2                 X         
 
 
      Basis set label: C.AUG-CC-PVDZ.........
 
      Electronic valence basis set:
      ------------------
      Associated Effective Charge   6.000000 au
      Associated Actual Charge      6.000000 au
      Nuclear Model: Point charge
 
      Shell  nPrim  nBasis  Cartesian Spherical Contaminant
         s      10       4        X                  
         p       5       3        X                  
         d       2       2                 X         
 
 
      Basis set label: N.AUG-CC-PVDZ.........
 
      Electronic valence basis set:
      ------------------
      Associated Effective Charge   7.000000 au
      Associated Actual Charge      7.000000 au
      Nuclear Model: Point charge
 
      Shell  nPrim  nBasis  Cartesian Spherical Contaminant
         s      10       4        X                  
         p       5       3        X                  
         d       2       2                 X         
 
 
      Basis set label: C.AUG-CC-PVDZ.........
 
      Electronic valence basis set:
      ------------------
      Associated Effective Charge   6.000000 au
      Associated Actual Charge      6.000000 au
      Nuclear Model: Point charge
 
      Shell  nPrim  nBasis  Cartesian Spherical Contaminant
         s      10       4        X                  
         p       5       3        X                  
         d       2       2                 X         
 
 
      Basis set label: O.AUG-CC-PVDZ.........
 
      Electronic valence basis set:
      ------------------
      Associated Effective Charge   8.000000 au
      Associated Actual Charge      8.000000 au
      Nuclear Model: Point charge
 
      Shell  nPrim  nBasis  Cartesian Spherical Contaminant
         s      10       4        X                  
         p       5       3        X                  
         d       2       2                 X         
 
 
      Basis set label: H.AUG-CC-PVDZ.........
 
      Electronic valence basis set:
      ------------------
      Associated Effective Charge   1.000000 au
      Associated Actual Charge      1.000000 au
      Nuclear Model: Point charge
 
      Shell  nPrim  nBasis  Cartesian Spherical Contaminant
         s       5       3        X                  
         p       2       2        X                  
--
 
 
++    Molecular structure info:
      -------------------------
 
                    ************************************************ 
                    **** Cartesian Coordinates / bohr, angstrom **** 
                    ************************************************ 
 
     Center  Label                x              y              z                     x              y              z
        1      N1              -2.766559       0.187083       0.000000             -1.464000       0.099000       0.000000
        2      C2              -1.948308      -2.263892       0.000000             -1.031000      -1.198000       0.000000
        3      N3               0.634948      -2.607822       0.000000              0.336000      -1.380000       0.000000
        4      C4               2.365937      -0.655735       0.000000              1.252000      -0.347000       0.000000
        5      C5               1.381390       1.859491       0.000000              0.731000       0.984000       0.000000
        6      C6              -1.105490       2.209090       0.000000             -0.585000       1.169000       0.000000
        7      O7              -3.412845      -4.000550       0.000000             -1.806000      -2.117000       0.000000
        8      O8               4.648726      -0.990216       0.000000              2.460000      -0.524000       0.000000
        9      H9              -4.629829       0.548021       0.000000             -2.450000       0.290000       0.000000
       10      H10              1.330367      -4.387944       0.000000              0.704000      -2.322000       0.000000
       11      H11              2.702308       3.414735       0.000000              1.430000       1.807000       0.000000
       12      H12             -1.946418       4.072360       0.000000             -1.030000       2.155000       0.000000
 
                    *************************************** 
                    *    InterNuclear Distances / bohr    * 
                    *************************************** 
 
               1 N1            2 C2            3 N3            4 C4            5 C5            6 C6    
    1 N1       0.000000
    2 C2       2.583953        0.000000
    3 N3       4.402470        2.606050        0.000000
    4 C4       5.201236        4.604224        2.609017        0.000000
    5 C5       4.472407        5.299921        4.529245        2.701054        0.000000
    6 C6       2.616804        4.551693        5.121695        4.500892        2.511332        0.000000
    7 O7       4.237211        2.271751        4.280692        6.676984        7.571312        6.624464
    8 O8       7.508162        6.718862        4.327478        2.307164        4.335472        6.583811
    9 H9       1.897907        3.885538        6.138177        7.098575        6.152618        3.896167
   10 H10      6.141309        3.906572        1.911136        3.873214        6.247643        7.032372
   11 H11      6.350295        7.339961        6.367509        4.084345        2.040493        3.994109
   12 H12      3.970895        6.336252        7.161584        6.399319        3.996385        2.044244
 
               7 O7            8 O8            9 H9           10 H10          11 H11          12 H12   
    7 O7       0.000000
    8 O8       8.605292        0.000000
    9 H9       4.708561        9.405199        0.000000
   10 H10      4.759006        4.749322        7.738713        0.000000
   11 H11      9.611533        4.815822        7.872629        7.922375        0.000000
   12 H12      8.205016        8.314181        4.429635        9.072710        4.695011        0.000000
 
                    ******************************************* 
                    *    InterNuclear Distances / angstrom    * 
                    ******************************************* 
 
               1 N1            2 C2            3 N3            4 C4            5 C5            6 C6    
    1 N1       0.000000
    2 C2       1.367369        0.000000
    3 N3       2.329687        1.379062        0.000000
    4 C4       2.752376        2.436450        1.380632        0.000000
    5 C5       2.366696        2.804598        2.396773        1.429336        0.000000
    6 C6       1.384753        2.408652        2.710284        2.381769        1.328940        0.000000
    7 O7       2.242235        1.202159        2.265245        3.533308        4.006566        3.505515
    8 O8       3.973148        3.555469        2.290003        1.220898        2.294233        3.484003
    9 H9       1.004329        2.056138        3.248183        3.756404        3.255825        2.061763
   10 H10      3.249841        2.067269        1.011330        2.049617        3.306110        3.721371
   11 H11      3.360432        3.884140        3.369541        2.161342        1.079782        2.113591
   12 H12      2.101307        3.353000        3.789747        3.386374        2.114796        1.081768
 
               7 O7            8 O8            9 H9           10 H10          11 H11          12 H12   
    7 O7       0.000000
    8 O8       4.553724        0.000000
    9 H9       2.491663        4.977017        0.000000
   10 H10      2.518358        2.513233        4.095151        0.000000
   11 H11      5.086204        2.548423        4.166016        4.192340        0.000000
   12 H12      4.341907        4.399675        2.344062        4.801071        2.484493        0.000000
 
                    ************************************** 
                    *    Valence Bond Angles / degree    * 
                    ************************************** 
                          Atom centers                 Phi
                      2 C2       1 N1       6 C6       122.14
                      2 C2       1 N1       9 H9       119.42
                      6 C6       1 N1       9 H9       118.44
                      1 N1       2 C2       3 N3       116.05
                      1 N1       2 C2       7 O7       121.40
                      3 N3       2 C2       7 O7       122.56
                      2 C2       3 N3       4 C4       123.98
                      2 C2       3 N3      10 H10      118.92
                      4 C4       3 N3      10 H10      117.10
                      3 N3       4 C4       5 C5       117.06
                      3 N3       4 C4       8 O8       123.23
                      5 C5       4 C4       8 O8       119.71
                      4 C4       5 C5       6 C6       119.38
                      4 C4       5 C5      11 H11      118.28
                      6 C6       5 C5      11 H11      122.34
                      1 N1       6 C6       5 C5       121.40
                      1 N1       6 C6      12 H12      116.31
                      5 C5       6 C6      12 H12      122.29
 
           ***************************************************************
           *              Valence Dihedral Angles / degree               *
           ***************************************************************
                    Atom centers                       Phi1     Phi2     Theta 
           6 C6       1 N1       2 C2       7 O7        122.14   121.40  -180.00
           2 C2       1 N1       6 C6       5 C5        122.14   121.40     0.00
           2 C2       1 N1       6 C6      12 H12       122.14   116.31  -180.00
           9 H9       1 N1       6 C6      12 H12       118.44   116.31     0.00
           3 N3       2 C2       1 N1       6 C6        116.05   122.14     0.00
           3 N3       2 C2       1 N1       9 H9        116.05   119.42  -180.00
           7 O7       2 C2       1 N1       9 H9        121.40   119.42     0.00
           1 N1       2 C2       3 N3       4 C4        116.05   123.98     0.00
           1 N1       2 C2       3 N3      10 H10       116.05   118.92  -180.00
           7 O7       2 C2       3 N3      10 H10       122.56   118.92     0.00
           4 C4       3 N3       2 C2       7 O7        123.98   122.56  -180.00
           2 C2       3 N3       4 C4       5 C5        123.98   117.06     0.00
           2 C2       3 N3       4 C4       8 O8        123.98   123.23  -180.00
           5 C5       4 C4       3 N3      10 H10       117.06   117.10  -180.00
           8 O8       4 C4       3 N3      10 H10       123.23   117.10     0.00
           3 N3       4 C4       5 C5       6 C6        117.06   119.38     0.00
           3 N3       4 C4       5 C5      11 H11       117.06   118.28  -180.00
           8 O8       4 C4       5 C5      11 H11       119.71   118.28     0.00
           6 C6       5 C5       4 C4       8 O8        119.38   119.71  -180.00
           4 C4       5 C5       6 C6      12 H12       119.38   122.29  -180.00
          11 H11      5 C5       6 C6      12 H12       122.34   122.29     0.00
           5 C5       6 C6       1 N1       9 H9        121.40   118.44  -180.00
           1 N1       6 C6       5 C5       4 C4        121.40   119.38     0.00
           1 N1       6 C6       5 C5      11 H11       121.40   122.34  -180.00
--
 
 
            Nuclear Potential Energy            359.82307024 au
 
--- Stop Module: gateway at Mon Jun 22 02:27:39 2026 /rc=_RC_ALL_IS_WELL_ ---
*** files: Test.RICDLib xmldump
    saved to directory /gpfs/scratch/amehmood/test

--- Start Module: seward at Mon Jun 22 02:27:39 2026 ---
 
()()()()()()()()()()()()()()()()()()()()()()()()()()()()()()()()()()()()()()()()()()()()()()()()()()

                                              &SEWARD

                       only a single process is used, running in SERIAL mode
                       available to each process: 80 GB of memory, 1 thread?
                                            pid: 695488
()()()()()()()()()()()()()()()()()()()()()()()()()()()()()()()()()()()()()()()()()()()()()()()()()()
 
               SEWARD will generate:
                  Multipole Moment integrals up to order  2
                  Kinetic Energy integrals
                  Nuclear Attraction integrals (point charge)
                  One-Electron Hamiltonian integrals
                  Velocity integrals
                  Orbital angular momentum around ( -0.0386  -0.8593   0.0000 )
                  Velocity quadrupole around ( -0.0386  -0.8593   0.0000 )
                  RI decomposed two-electron repulsion integrals stored Cholesky style
                   - acCD auxiliary basis
                   - CD Threshold:   1.00E-04
 
                   Integrals are discarded if absolute value <: 1.00E-14
                   Integral cutoff threshold is set to       <: 1.00E-16
 
            Nuclear Potential Energy            359.82307024 au
 
 
      Basis set specifications :
      Symmetry species         a  
      Basis functions          220
 
 
      Input file to MOLDEN was generated!
 
--- Stop Module: seward at Mon Jun 22 02:27:44 2026 /rc=_RC_ALL_IS_WELL_ ---
*** files: Test.GssOrb Test.guessorb.h5 Test.guessorb.molden xmldump
    saved to directory /gpfs/scratch/amehmood/test
--- Module seward spent 4 seconds ---

--- Start Module: scf at Mon Jun 22 02:27:44 2026 ---
 
()()()()()()()()()()()()()()()()()()()()()()()()()()()()()()()()()()()()()()()()()()()()()()()()()()

                                                &SCF

                       only a single process is used, running in SERIAL mode
                       available to each process: 80 GB of memory, 1 thread?
                                            pid: 695499
()()()()()()()()()()()()()()()()()()()()()()()()()()()()()()()()()()()()()()()()()()()()()()()()()()
 
++    Input section:
      --------------
 
      Header of the integral files:
      
       Integrals generated by Gateway/Seward, Mon Jun 22 02:27:39 2026
 
 
      Cartesian coordinates in angstrom:
      -----------------------------------------------------
      No.  Label        X            Y            Z        
      -----------------------------------------------------
       1   N1        -1.46400000   0.09900000   0.00000000
       2   C2        -1.03100000  -1.19800000   0.00000000
       3   N3         0.33600000  -1.38000000   0.00000000
       4   C4         1.25200000  -0.34700000   0.00000000
       5   C5         0.73100000   0.98400000   0.00000000
       6   C6        -0.58500000   1.16900000   0.00000000
       7   O7        -1.80600000  -2.11700000   0.00000000
       8   O8         2.46000000  -0.52400000   0.00000000
       9   H9        -2.45000000   0.29000000   0.00000000
      10   H10        0.70400000  -2.32200000   0.00000000
      11   H11        1.43000000   1.80700000   0.00000000
      12   H12       -1.03000000   2.15500000   0.00000000
      -----------------------------------------------------
      Nuclear repulsion energy =  359.82307024
--
 
++    Orbital specifications:
      -----------------------
 
      Symmetry species               1
                                     a
      Frozen orbitals                0
      Aufbau                        29
      Start temperature = 0.500
      End temperature   = 0.010
      Temperature Factor= 0.460
      Deleted orbitals             188
      Total number of orbitals      32
      Number of basis functions    220
--
 
      Molecular charge                           0.000
 
++    Optimization specifications:
      ----------------------------
 
      SCF Algorithm: LK-RI/DF
      LK screening threshold:                     4.50E-02
      Local-Exchange (LK) algorithm.
       - the density matrix is decomposed
      The actual AO density is used
      Number of density matrices in core                 5
      Maximum number of NDDO SCF iterations            400
      Maximum number of HF SCF iterations              400
      Threshold for SCF energy change             1.00E-09
      Threshold for density matrix                1.00E-04
      Threshold for Fock matrix                   1.50E-04
      Threshold for linear dependence             1.00E-09
      Threshold at which DIIS is turned on        1.50E-01
      Maximum depth in the DIIS procedure                5
      Maximum depth in the BFGS Hessian update          30
      Threshold at which QNR/C2DIIS is turned on  7.50E-02
      Threshold for Norm(delta) (QNR/C2DIIS)      1.00E-03
      All orbitals punched on: SCFORB
--
 
      Input vectors read from INPORB
      Orbital file label: * RASSCF average (pseudo-natural) orbita
 
 
++ Convergence information
                                   SCF        iterations: Energy and convergence statistics
 
Iter     Tot. SCF        One-elec.       Two-elec.     Energy      Max Dij or  Max Fij      DNorm      TNorm      AccCon     Time
         Energy          Energy          Energy        Change      Delta Norm                                                in Sec.
   1  -384.118097990 -1211.129997858   467.188829630   0.00E+00    3.30E-15    8.12E-01*    4.68E+01   3.48E+02   None         1.
   2  -411.495739501 -1268.519934678   497.201124940  -2.74E+01*   1.05E-01*   1.77E-01*    2.11E+01   3.57E+02   EDIIS        1.
   3  -412.158141334 -1272.746706656   500.765495084  -6.62E-01*   4.57E-02*   7.37E-02*    1.61E+01   3.58E+02   EDIIS        1.
   4  -412.490154470 -1276.987716552   504.674491845  -3.32E-01*   1.99E-02*   3.31E-02*    1.51E+01   3.60E+02   EDIIS        1.
   5  -412.514855821 -1277.171452490   504.833526432  -2.47E-02*   7.26E-03*   3.12E-03*    1.51E+01   3.60E+02   EDIIS        1.
   6  -412.515249244 -1277.100421807   504.762102326  -3.93E-04*   1.76E-03*   5.79E-04*    1.51E+01   3.60E+02   EDIIS        1.
 
       Fermi aufbau procedure completed!
      nOcc=   29
 
   7  -412.515253718 -1277.087783584   504.749459629  -4.47E-06*   9.43E-05    1.68E-04*    1.51E+01   3.60E+02   c2DIIS       1.
   8  -412.515253947 -1277.084884809   504.746560625  -2.29E-07*   1.97E-05    7.68E-06     1.51E+01   3.60E+02   QNRc2DIIS    1.
   9  -412.515253948 -1277.084865258   504.746541073  -7.46E-10    7.02E-06    1.95E-06     1.51E+01   3.60E+02   QNRc2DIIS    1.
 
       Convergence after   9 Iterations
--
 
 *****************************************************************************************************************************
 *                                                                                                                           *
 *                                             SCF/KS-DFT Program, Final results                                             *
 *                                                                                                                           *
 *                                                                                                                           *
 *                                                                                                                           *
 *                                                       Final Results                                                       *
 *                                                                                                                           *
 *****************************************************************************************************************************
 
::    Total SCF energy                               -412.5152539478
      One-electron energy                           -1277.0848652579
      Two-electron energy                             504.7465410725
      Nuclear repulsion energy                        359.8230702376
      Kinetic energy (interpolated)                   412.7804746830
      Virial theorem                                    0.9993574775
      Total spin, S(S+1)                                0.0000000000
      Total spin, S                                     0.0000000000
      Max non-diagonal density matrix element           0.0000083157
      Max non-diagonal Fock matrix element              0.0000006765
 
 
      All orbitals with orbital energies smaller than  E(LUMO)+0.5 are printed
 
++    Molecular orbitals:
      -------------------
 
      Title: SCF orbitals

      Molecular orbitals for symmetry species 1: a  
 
          Orbital            1         2         3         4         5         6         7         8         9        10    
          Energy          -20.5525  -20.5287  -15.6260  -15.6118  -11.4063  -11.3434  -11.2804  -11.1493   -1.4410   -1.3865
          Occ. No.          2.0000    2.0000    2.0000    2.0000    2.0000    2.0000    2.0000    2.0000    2.0000    2.0000
 
        1 N1     1s         0.0001    0.0000   -0.0007    1.0025    0.0002    0.0000    0.0002   -0.0000   -0.0072    0.0001
        2 N1     2s         0.0003    0.0001    0.0001    0.0112    0.0016    0.0001    0.0017   -0.0002    0.2334   -0.0102
        3 N1     *s        -0.0017    0.0006   -0.0005   -0.0282   -0.0036   -0.0010   -0.0052   -0.0005   -0.0082   -0.0108
        4 N1     *s         0.0041    0.0031    0.0098   -0.0142    0.0018    0.0046   -0.0021    0.0004   -0.0968   -0.0278
        5 N1     2px       -0.0000    0.0000   -0.0000    0.0003    0.0002    0.0000    0.0004   -0.0000    0.0173    0.0104
        6 N1     *px       -0.0005   -0.0004   -0.0009   -0.0044   -0.0012   -0.0014   -0.0031   -0.0010    0.0311    0.0033
        7 N1     *px       -0.0001    0.0016    0.0022   -0.0033    0.0001    0.0006    0.0002    0.0001   -0.0117   -0.0169
        8 N1     2py        0.0001    0.0000    0.0001   -0.0000   -0.0005    0.0000    0.0006    0.0000   -0.0579    0.0123
        9 N1     *py        0.0031   -0.0009    0.0012    0.0004    0.0062    0.0007   -0.0057   -0.0009   -0.0141    0.0123
       10 N1     *py       -0.0020    0.0004   -0.0005   -0.0008   -0.0016    0.0006   -0.0018    0.0008    0.0215   -0.0198
       11 N1     2pz        0.0000    0.0000   -0.0000   -0.0000   -0.0000   -0.0000   -0.0000    0.0000   -0.0000    0.0000
       12 N1     *pz        0.0000    0.0000   -0.0000    0.0000    0.0000    0.0000   -0.0000   -0.0000    0.0000    0.0000
       13 N1     *pz        0.0000   -0.0000   -0.0000    0.0000    0.0000   -0.0000   -0.0000   -0.0000   -0.0000    0.0000
       14 N1     *d2-      -0.0001   -0.0000    0.0001   -0.0000    0.0001    0.0000   -0.0001    0.0000   -0.0011   -0.0000
       15 N1     *d2-       0.0006   -0.0003   -0.0001   -0.0007    0.0019   -0.0003   -0.0028   -0.0008   -0.0020    0.0040
       16 N1     *d1-       0.0000   -0.0000    0.0000   -0.0000   -0.0000    0.0000   -0.0000    0.0000   -0.0000    0.0000
       17 N1     *d1-       0.0000    0.0000    0.0000   -0.0000    0.0000   -0.0000    0.0000   -0.0000   -0.0000    0.0000
       18 N1     *d0        0.0000   -0.0000    0.0000   -0.0002    0.0002    0.0001    0.0002   -0.0000   -0.0058    0.0001
       19 N1     *d0        0.0004    0.0003    0.0004    0.0010    0.0009    0.0000    0.0003   -0.0001   -0.0021   -0.0025
       20 N1     *d1+      -0.0000   -0.0000   -0.0000   -0.0000   -0.0000   -0.0000    0.0000    0.0000    0.0000   -0.0000
       21 N1     *d1+       0.0000    0.0000   -0.0000   -0.0000   -0.0000    0.0000    0.0000   -0.0000    0.0000   -0.0000
       22 N1     *d2+       0.0002    0.0001    0.0000   -0.0000    0.0000   -0.0000    0.0000    0.0001   -0.0069    0.0007
       23 N1     *d2+       0.0009   -0.0002    0.0007    0.0014    0.0020   -0.0004   -0.0003   -0.0006   -0.0187    0.0096
       24 C2     1s         0.0003    0.0000    0.0001    0.0001    1.0031   -0.0003   -0.0003   -0.0002   -0.0123    0.0006
       25 C2     2s         0.0010    0.0001    0.0004    0.0004    0.0140   -0.0015   -0.0014   -0.0007    0.5270   -0.0877
       26 C2     *s         0.0174   -0.0038    0.0110    0.0102    0.0031    0.0004   -0.0021   -0.0032   -0.3137    0.1072
       27 C2     *s         0.0044   -0.0033    0.0030   -0.0000   -0.0110    0.0017    0.0060    0.0005    0.0953   -0.0307
       28 C2     2px       -0.0003    0.0000    0.0005   -0.0002    0.0005   -0.0003    0.0000   -0.0001   -0.1175    0.0928
       29 C2     *px       -0.0033   -0.0010    0.0054   -0.0021    0.0023   -0.0019    0.0002   -0.0012    0.0656   -0.0321
       30 C2     *px        0.0011   -0.0018    0.0013   -0.0006   -0.0017    0.0011    0.0003    0.0009    0.0173    0.0033
       31 C2     2py       -0.0004    0.0001   -0.0001    0.0004    0.0010   -0.0000   -0.0003   -0.0001   -0.1401    0.0648
       32 C2     *py       -0.0039   -0.0012   -0.0014    0.0044    0.0036   -0.0006   -0.0051   -0.0012    0.0788   -0.0171
       33 C2     *py        0.0007   -0.0004   -0.0007    0.0003   -0.0019   -0.0001    0.0023    0.0003    0.0233    0.0018
       34 C2     2pz        0.0000    0.0000    0.0000    0.0000    0.0000    0.0000   -0.0000   -0.0000    0.0000   -0.0000
       35 C2     *pz        0.0000   -0.0000    0.0000    0.0000   -0.0000    0.0000    0.0000   -0.0000   -0.0000    0.0000
       36 C2     *pz        0.0000   -0.0000    0.0000    0.0000   -0.0000    0.0000    0.0000   -0.0000    0.0000   -0.0000
       37 C2     *d2-      -0.0007   -0.0001    0.0000    0.0001    0.0001   -0.0000    0.0000   -0.0001    0.0264   -0.0079
       38 C2     *d2-       0.0025   -0.0001   -0.0023   -0.0027   -0.0023   -0.0002    0.0006    0.0001   -0.0158    0.0086
       39 C2     *d1-       0.0000    0.0000    0.0000    0.0000   -0.0000   -0.0000   -0.0000    0.0000    0.0000    0.0000
       40 C2     *d1-      -0.0000   -0.0000    0.0000    0.0000   -0.0000   -0.0000   -0.0000   -0.0000   -0.0000    0.0000
       41 C2     *d0       -0.0001    0.0001   -0.0001   -0.0001   -0.0012   -0.0002   -0.0001    0.0000   -0.0222    0.0019
       42 C2     *d0       -0.0028    0.0001   -0.0017   -0.0015    0.0001   -0.0004   -0.0002    0.0002    0.0231   -0.0072
       43 C2     *d1+       0.0000    0.0000    0.0000    0.0000    0.0000    0.0000   -0.0000    0.0000    0.0000    0.0000
       44 C2     *d1+      -0.0000   -0.0000    0.0000    0.0000   -0.0000   -0.0000   -0.0000    0.0000    0.0000   -0.0000
       45 C2     *d2+       0.0001    0.0000   -0.0003    0.0002   -0.0001   -0.0001    0.0000   -0.0000   -0.0037    0.0072
       46 C2     *d2+      -0.0005    0.0002    0.0018   -0.0008    0.0001   -0.0017    0.0025   -0.0003    0.0021    0.0020
       47 N3     1s         0.0001    0.0001    1.0025    0.0008    0.0002    0.0002    0.0000   -0.0001   -0.0082   -0.0063
       48 N3     2s         0.0004    0.0004    0.0110    0.0001    0.0014    0.0014    0.0001   -0.0003    0.2481    0.1998
       49 N3     *s        -0.0016   -0.0030   -0.0282   -0.0013   -0.0027   -0.0039   -0.0014   -0.0006   -0.0031    0.0214
       50 N3     *s         0.0052    0.0013   -0.0133    0.0092    0.0002   -0.0048    0.0024    0.0009   -0.0921   -0.0165
       51 N3     2px        0.0001   -0.0000   -0.0003    0.0001   -0.0006    0.0004    0.0000    0.0000   -0.0498    0.0555
       52 N3     *px        0.0030   -0.0023    0.0017    0.0008    0.0061   -0.0037    0.0003   -0.0009   -0.0245    0.0180
       53 N3     *px       -0.0023    0.0018    0.0012   -0.0012   -0.0011   -0.0008    0.0015    0.0007    0.0226   -0.0347
       54 N3     2py       -0.0000   -0.0000    0.0004   -0.0000    0.0001    0.0004   -0.0000   -0.0001    0.0109    0.0383
       55 N3     *py        0.0000   -0.0019   -0.0037   -0.0007    0.0002   -0.0025   -0.0005   -0.0007    0.0267    0.0350
       56 N3     *py       -0.0005   -0.0003   -0.0028    0.0015   -0.0004   -0.0014   -0.0003    0.0003   -0.0035    0.0039
       57 N3     2pz       -0.0000   -0.0000    0.0000   -0.0000   -0.0000    0.0000    0.0000    0.0000   -0.0000    0.0000
       58 N3     *pz        0.0000   -0.0000   -0.0000    0.0000    0.0000   -0.0000    0.0000   -0.0000    0.0000   -0.0000
       59 N3     *pz       -0.0000    0.0000   -0.0000    0.0000    0.0000   -0.0000   -0.0000    0.0000    0.0000    0.0000
       60 N3     *d2-      -0.0001   -0.0001    0.0000    0.0001    0.0001   -0.0000    0.0001    0.0000    0.0023    0.0052
       61 N3     *d2-       0.0001   -0.0009   -0.0013   -0.0005    0.0011   -0.0024   -0.0005   -0.0005    0.0050    0.0173
       62 N3     *d1-      -0.0000    0.0000    0.0000    0.0000    0.0000   -0.0000   -0.0000   -0.0000    0.0000    0.0000
       63 N3     *d1-       0.0000   -0.0000   -0.0000    0.0000    0.0000    0.0000   -0.0000   -0.0000    0.0000   -0.0000
       64 N3     *d0        0.0000    0.0001   -0.0001    0.0000    0.0002    0.0002    0.0001   -0.0000   -0.0060   -0.0048
       65 N3     *d0        0.0004    0.0001    0.0011    0.0002    0.0008    0.0003    0.0000   -0.0003   -0.0006    0.0065
       66 N3     *d1+       0.0000    0.0000    0.0000   -0.0000   -0.0000   -0.0000    0.0000   -0.0000   -0.0000    0.0000
       67 N3     *d1+      -0.0000   -0.0000   -0.0000   -0.0000    0.0000    0.0000   -0.0000   -0.0000   -0.0000    0.0000
       68 N3     *d2+      -0.0001   -0.0001    0.0000   -0.0000   -0.0000    0.0001    0.0000   -0.0000    0.0069    0.0014
       69 N3     *d2+      -0.0011    0.0000   -0.0014   -0.0008   -0.0024    0.0005    0.0001    0.0006    0.0186   -0.0026
       70 C4     1s         0.0000    0.0003    0.0002   -0.0001   -0.0005    1.0034   -0.0003   -0.0026   -0.0044   -0.0147
       71 C4     2s         0.0001    0.0008    0.0004   -0.0004   -0.0013    0.0151   -0.0012    0.0001    0.1295    0.4692
       72 C4     *s        -0.0009    0.0100    0.0015    0.0092   -0.0049   -0.0298    0.0206    0.0059    0.0055   -0.0052
       73 C4     *s        -0.0086    0.0197    0.0088   -0.0060    0.0087   -0.0088    0.0055    0.0148    0.0242   -0.0791
       74 C4     2px       -0.0001    0.0006   -0.0003    0.0000    0.0002   -0.0004    0.0001   -0.0002    0.0041    0.2088
       75 C4     *px        0.0015    0.0082   -0.0015   -0.0011    0.0015    0.0023   -0.0039   -0.0015   -0.0066   -0.1542
       76 C4     *px        0.0026   -0.0017   -0.0007    0.0019   -0.0015   -0.0003    0.0020   -0.0002   -0.0182   -0.0241
       77 C4     2py        0.0000   -0.0002   -0.0004   -0.0000    0.0001   -0.0012   -0.0000    0.0003   -0.0299   -0.0638
       78 C4     *py        0.0019   -0.0058   -0.0113    0.0036   -0.0015   -0.0171    0.0096    0.0013    0.0691    0.2559
       79 C4     *py       -0.0004    0.0037    0.0002   -0.0004   -0.0010   -0.0024    0.0049    0.0050    0.0038   -0.0483
       80 C4     2pz        0.0000    0.0000   -0.0000   -0.0000    0.0000   -0.0000    0.0000   -0.0000   -0.0000    0.0000
       81 C4     *pz        0.0000   -0.0000    0.0000    0.0000    0.0000    0.0000   -0.0000    0.0000    0.0000   -0.0000
       82 C4     *pz        0.0000    0.0000    0.0000    0.0000   -0.0000    0.0000    0.0000    0.0000    0.0000    0.0000
       83 C4     *d2-       0.0000    0.0003   -0.0002   -0.0000   -0.0001    0.0001   -0.0001    0.0001    0.0036   -0.0064
       84 C4     *d2-       0.0001    0.0019    0.0039    0.0005   -0.0024    0.0037   -0.0016    0.0013   -0.0019   -0.0416
       85 C4     *d1-       0.0000   -0.0000    0.0000   -0.0000    0.0000    0.0000    0.0000   -0.0000   -0.0000    0.0000
       86 C4     *d1-      -0.0000   -0.0000   -0.0000    0.0000    0.0000    0.0000   -0.0000    0.0000    0.0000   -0.0000
       87 C4     *d0        0.0000   -0.0000   -0.0001   -0.0000   -0.0001   -0.0008   -0.0002    0.0002   -0.0069   -0.0213
       88 C4     *d0       -0.0001   -0.0023   -0.0013   -0.0006   -0.0003    0.0026   -0.0007   -0.0009    0.0061    0.0123
       89 C4     *d1+       0.0000    0.0000    0.0000   -0.0000   -0.0000   -0.0000    0.0000    0.0000    0.0000    0.0000
       90 C4     *d1+      -0.0000   -0.0000   -0.0000    0.0000   -0.0000   -0.0000   -0.0000   -0.0000    0.0000   -0.0000
       91 C4     *d2+      -0.0002   -0.0006    0.0000   -0.0001    0.0000    0.0003    0.0001    0.0002    0.0078    0.0291
       92 C4     *d2+      -0.0011    0.0039    0.0010   -0.0015    0.0021    0.0026   -0.0014    0.0014   -0.0297   -0.0960
       93 C5     1s         0.0000    0.0001    0.0000    0.0000   -0.0000    0.0024    0.0064    1.0035   -0.0020   -0.0025
       94 C5     2s         0.0001    0.0004    0.0000    0.0000   -0.0001    0.0002   -0.0001    0.0167    0.0386    0.0907
       95 C5     *s        -0.0003   -0.0010    0.0006    0.0054   -0.0090    0.0040    0.0202   -0.0428   -0.0611   -0.1370
       96 C5     *s         0.0106   -0.0088    0.0050   -0.0016   -0.0025    0.0009    0.0116   -0.0354   -0.0750   -0.0322
       97 C5     2px       -0.0000   -0.0001   -0.0000    0.0002    0.0001    0.0001   -0.0001   -0.0008   -0.0065    0.0215
       98 C5     *px       -0.0012    0.0055    0.0097   -0.0065    0.0090    0.0170   -0.0249    0.0129   -0.0640   -0.2263
       99 C5     *px       -0.0014   -0.0009   -0.0024    0.0006   -0.0002    0.0029   -0.0087    0.0020    0.0197    0.0604
      100 C5     2py       -0.0000    0.0003    0.0002    0.0000    0.0001   -0.0002   -0.0000   -0.0006   -0.0157   -0.0438
      101 C5     *py        0.0005   -0.0025   -0.0045    0.0048   -0.0006   -0.0126    0.0135    0.0008    0.0100    0.1712
      102 C5     *py       -0.0015    0.0043    0.0002    0.0012    0.0013   -0.0035    0.0016    0.0052    0.0120   -0.0214
      103 C5     2pz        0.0000   -0.0000    0.0000    0.0000    0.0000    0.0000    0.0000    0.0000    0.0000    0.0000
      104 C5     *pz       -0.0000   -0.0000   -0.0000    0.0000   -0.0000   -0.0000   -0.0000   -0.0000    0.0000    0.0000
      105 C5     *pz        0.0000   -0.0000    0.0000   -0.0000    0.0000   -0.0000   -0.0000   -0.0000   -0.0000    0.0000
      106 C5     *d2-       0.0001    0.0003    0.0000   -0.0001   -0.0002   -0.0000   -0.0000   -0.0001   -0.0021   -0.0091
      107 C5     *d2-       0.0012    0.0009   -0.0007    0.0020   -0.0024   -0.0037    0.0001    0.0006    0.0280    0.0365
      108 C5     *d1-       0.0000   -0.0000    0.0000    0.0000    0.0000   -0.0000    0.0000   -0.0000    0.0000   -0.0000
      109 C5     *d1-       0.0000    0.0000   -0.0000    0.0000    0.0000    0.0000   -0.0000    0.0000   -0.0000   -0.0000
      110 C5     *d0        0.0000    0.0001    0.0000    0.0000    0.0001    0.0002    0.0002   -0.0007   -0.0023   -0.0026
      111 C5     *d0        0.0000    0.0012    0.0008    0.0010    0.0001   -0.0001    0.0002    0.0041   -0.0046   -0.0071
      112 C5     *d1+       0.0000    0.0000   -0.0000    0.0000    0.0000   -0.0000   -0.0000   -0.0000   -0.0000   -0.0000
      113 C5     *d1+       0.0000    0.0000    0.0000   -0.0000    0.0000   -0.0000    0.0000    0.0000   -0.0000    0.0000
      114 C5     *d2+      -0.0000   -0.0000    0.0001   -0.0001    0.0000    0.0000    0.0001    0.0002    0.0001   -0.0026
      115 C5     *d2+       0.0001   -0.0025   -0.0034    0.0021   -0.0016   -0.0053    0.0070   -0.0037    0.0080    0.0710
      116 C6     1s         0.0001   -0.0000   -0.0001    0.0002   -0.0006   -0.0004    1.0033   -0.0071   -0.0030    0.0006
      117 C6     2s         0.0003    0.0000   -0.0004    0.0006   -0.0016   -0.0014    0.0153   -0.0007    0.0683    0.0283
      118 C6     *s        -0.0030    0.0074    0.0110    0.0005    0.0072    0.0182   -0.0476    0.0220   -0.0638   -0.2169
      119 C6     *s        -0.0066   -0.0040   -0.0114    0.0116    0.0033    0.0034   -0.0255    0.0137    0.0421    0.1559
      120 C6     2px        0.0001    0.0001    0.0000   -0.0004    0.0000   -0.0001   -0.0009    0.0001   -0.0141    0.0104
      121 C6     *px        0.0003    0.0044    0.0063   -0.0098    0.0073    0.0117   -0.0230    0.0136    0.0003   -0.1231
      122 C6     *px       -0.0014   -0.0015   -0.0019    0.0002   -0.0009    0.0028   -0.0060    0.0048    0.0135    0.0217
      123 C6     2py        0.0000   -0.0001    0.0000   -0.0004    0.0003    0.0001   -0.0017   -0.0001   -0.0319   -0.0061
      124 C6     *py        0.0026   -0.0016   -0.0025   -0.0046   -0.0024   -0.0061   -0.0052   -0.0067    0.0357    0.0568
      125 C6     *py        0.0020   -0.0007    0.0023   -0.0039   -0.0021    0.0012    0.0019   -0.0033   -0.0104    0.0033
      126 C6     2pz       -0.0000   -0.0000    0.0000   -0.0000   -0.0000    0.0000   -0.0000   -0.0000    0.0000   -0.0000
      127 C6     *pz        0.0000    0.0000    0.0000   -0.0000    0.0000    0.0000    0.0000    0.0000   -0.0000   -0.0000
      128 C6     *pz       -0.0000    0.0000   -0.0000    0.0000   -0.0000    0.0000    0.0000    0.0000    0.0000   -0.0000
      129 C6     *d2-       0.0001    0.0002    0.0000   -0.0002   -0.0001   -0.0001    0.0002    0.0001    0.0031   -0.0035
      130 C6     *d2-       0.0004   -0.0000   -0.0005    0.0044   -0.0028   -0.0025    0.0041    0.0001    0.0032    0.0130
      131 C6     *d1-       0.0000   -0.0000   -0.0000    0.0000   -0.0000    0.0000   -0.0000    0.0000   -0.0000   -0.0000
      132 C6     *d1-      -0.0000    0.0000   -0.0000   -0.0000   -0.0000   -0.0000    0.0000   -0.0000   -0.0000    0.0000
      133 C6     *d0        0.0000   -0.0000   -0.0000   -0.0001   -0.0002   -0.0002   -0.0008    0.0002   -0.0032   -0.0000
      134 C6     *d0        0.0000   -0.0006   -0.0005   -0.0013   -0.0005   -0.0006    0.0020   -0.0011    0.0065    0.0029
      135 C6     *d1+       0.0000    0.0000   -0.0000    0.0000   -0.0000    0.0000   -0.0000   -0.0000    0.0000    0.0000
      136 C6     *d1+       0.0000    0.0000    0.0000   -0.0000    0.0000   -0.0000   -0.0000    0.0000   -0.0000    0.0000
      137 C6     *d2+       0.0001    0.0001    0.0001    0.0000   -0.0000   -0.0001    0.0001   -0.0002   -0.0041    0.0010
      138 C6     *d2+       0.0004    0.0012    0.0014   -0.0022    0.0024    0.0008   -0.0076    0.0006    0.0068   -0.0218
      139 O7     1s         1.0016   -0.0000    0.0001    0.0000   -0.0002    0.0000    0.0000    0.0000   -0.0125    0.0041
      140 O7     2s         0.0065   -0.0000    0.0001    0.0001    0.0010    0.0001    0.0002    0.0000    0.6416   -0.2251
      141 O7     *s        -0.0150    0.0002   -0.0007   -0.0006   -0.0006   -0.0009   -0.0012   -0.0001   -0.0180    0.0041
      142 O7     *s        -0.0094    0.0014    0.0003    0.0002    0.0028   -0.0009   -0.0024    0.0004    0.0298   -0.0187
      143 O7     2px        0.0018    0.0000   -0.0001   -0.0000    0.0006   -0.0000   -0.0001   -0.0000    0.1133   -0.0316
      144 O7     *px       -0.0040    0.0003   -0.0007   -0.0003   -0.0017   -0.0003    0.0003    0.0001   -0.0275    0.0086
      145 O7     *px       -0.0019    0.0007    0.0002    0.0002    0.0007   -0.0005   -0.0000   -0.0002   -0.0038   -0.0032
      146 O7     2py        0.0022    0.0000   -0.0000   -0.0001    0.0007   -0.0001   -0.0000   -0.0000    0.1352   -0.0437
      147 O7     *py       -0.0047    0.0002   -0.0004   -0.0007   -0.0019    0.0003   -0.0002    0.0003   -0.0331    0.0067
      148 O7     *py       -0.0019    0.0003    0.0003    0.0002    0.0008    0.0002   -0.0012   -0.0000   -0.0051   -0.0031
      149 O7     2pz        0.0000    0.0000   -0.0000   -0.0000   -0.0000   -0.0000    0.0000    0.0000   -0.0000   -0.0000
      150 O7     *pz       -0.0000   -0.0000    0.0000   -0.0000   -0.0000   -0.0000   -0.0000    0.0000   -0.0000    0.0000
      151 O7     *pz       -0.0000   -0.0000    0.0000   -0.0000   -0.0000   -0.0000   -0.0000    0.0000   -0.0000   -0.0000
      152 O7     *d2-       0.0001    0.0000   -0.0001   -0.0000    0.0005   -0.0000    0.0000    0.0000    0.0137   -0.0043
      153 O7     *d2-      -0.0006    0.0001   -0.0000    0.0000   -0.0012    0.0001    0.0001    0.0001   -0.0072    0.0019
      154 O7     *d1-       0.0000    0.0000    0.0000   -0.0000   -0.0000   -0.0000    0.0000   -0.0000    0.0000   -0.0000
      155 O7     *d1-      -0.0000   -0.0000    0.0000   -0.0000   -0.0000   -0.0000   -0.0000    0.0000    0.0000    0.0000
      156 O7     *d0       -0.0002   -0.0000   -0.0000   -0.0000   -0.0002    0.0000    0.0000   -0.0000   -0.0082    0.0027
      157 O7     *d0        0.0004   -0.0001    0.0002    0.0002    0.0008   -0.0001   -0.0001   -0.0001    0.0046   -0.0008
      158 O7     *d1+      -0.0000   -0.0000    0.0000    0.0000   -0.0000    0.0000    0.0000   -0.0000    0.0000   -0.0000
      159 O7     *d1+      -0.0000    0.0000   -0.0000   -0.0000   -0.0000   -0.0000   -0.0000    0.0000   -0.0000    0.0000
      160 O7     *d2+      -0.0000   -0.0000   -0.0000    0.0000   -0.0001   -0.0000    0.0000   -0.0000   -0.0023    0.0014
      161 O7     *d2+       0.0001    0.0000   -0.0002    0.0001    0.0002   -0.0000   -0.0000   -0.0000    0.0015    0.0013
      162 O8     1s        -0.0000    1.0015    0.0001    0.0000    0.0000   -0.0002    0.0000   -0.0000   -0.0023   -0.0129
      163 O8     2s        -0.0000    0.0063    0.0002    0.0001    0.0001    0.0008    0.0001   -0.0001    0.1109    0.6990
      164 O8     *s         0.0004   -0.0150   -0.0013   -0.0001   -0.0014   -0.0004   -0.0006   -0.0007    0.0030    0.0011
      165 O8     *s         0.0022   -0.0107   -0.0016    0.0021   -0.0027    0.0006   -0.0005   -0.0008    0.0123    0.0910
      166 O8     2px       -0.0000   -0.0027    0.0001   -0.0000    0.0001   -0.0008    0.0000    0.0001   -0.0321   -0.1748
      167 O8     *px       -0.0002    0.0058    0.0004    0.0002   -0.0003    0.0015    0.0007   -0.0000    0.0119    0.0471
      168 O8     *px       -0.0010    0.0027    0.0001   -0.0009    0.0008    0.0002   -0.0002   -0.0003    0.0030   -0.0099
      169 O8     2py        0.0000    0.0003    0.0001    0.0000   -0.0000    0.0001   -0.0000   -0.0001    0.0012    0.0201
      170 O8     *py       -0.0001   -0.0012   -0.0001   -0.0002    0.0004   -0.0002   -0.0001   -0.0003   -0.0029   -0.0059
      171 O8     *py       -0.0002   -0.0007   -0.0001    0.0002    0.0004   -0.0005   -0.0002   -0.0004    0.0008    0.0052
      172 O8     2pz       -0.0000   -0.0000    0.0000    0.0000   -0.0000    0.0000   -0.0000    0.0000    0.0000    0.0000
      173 O8     *pz        0.0000    0.0000    0.0000   -0.0000    0.0000    0.0000    0.0000    0.0000   -0.0000   -0.0000
      174 O8     *pz       -0.0000    0.0000    0.0000   -0.0000    0.0000    0.0000    0.0000    0.0000    0.0000   -0.0000
      175 O8     *d2-      -0.0000   -0.0000   -0.0000   -0.0000   -0.0000   -0.0001   -0.0000   -0.0000   -0.0001   -0.0036
      176 O8     *d2-       0.0000    0.0002   -0.0001    0.0001    0.0000    0.0002    0.0001    0.0000    0.0020    0.0048
      177 O8     *d1-      -0.0000    0.0000   -0.0000   -0.0000    0.0000   -0.0000   -0.0000    0.0000   -0.0000   -0.0000
      178 O8     *d1-       0.0000    0.0000    0.0000   -0.0000   -0.0000   -0.0000    0.0000   -0.0000   -0.0000   -0.0000
      179 O8     *d0       -0.0000   -0.0002    0.0000   -0.0000    0.0000   -0.0001    0.0000    0.0000   -0.0014   -0.0086
      180 O8     *d0       -0.0000    0.0003    0.0000    0.0001   -0.0002    0.0004    0.0001   -0.0001    0.0023    0.0078
      181 O8     *d1+      -0.0000    0.0000   -0.0000    0.0000    0.0000   -0.0000   -0.0000    0.0000    0.0000   -0.0000
      182 O8     *d1+       0.0000   -0.0000    0.0000    0.0000   -0.0000   -0.0000   -0.0000    0.0000    0.0000    0.0000
      183 O8     *d2+       0.0000    0.0001   -0.0000    0.0000   -0.0000    0.0004   -0.0000    0.0000    0.0024    0.0134
      184 O8     *d2+       0.0001   -0.0006   -0.0000   -0.0001    0.0002   -0.0010   -0.0002   -0.0002   -0.0023   -0.0079
      185 H9     1s        -0.0002    0.0000   -0.0002   -0.0001   -0.0002   -0.0001   -0.0003   -0.0002    0.0784   -0.0103
      186 H9     *s        -0.0020   -0.0009   -0.0041   -0.0012   -0.0025   -0.0007    0.0001    0.0002    0.0044    0.0017
      187 H9     *s        -0.0001   -0.0004    0.0008   -0.0013   -0.0004    0.0010   -0.0008    0.0009   -0.0001    0.0013
      188 H9     *px       -0.0001   -0.0000    0.0000   -0.0002    0.0002    0.0000    0.0002   -0.0000    0.0072   -0.0003
      189 H9     *px       -0.0005   -0.0005   -0.0014   -0.0002   -0.0008   -0.0002   -0.0003    0.0001    0.0104    0.0010
      190 H9     *py        0.0000    0.0000    0.0000    0.0000    0.0001   -0.0000   -0.0002   -0.0001   -0.0024    0.0003
      191 H9     *py        0.0004   -0.0001    0.0007    0.0003    0.0007   -0.0001    0.0001   -0.0004   -0.0059    0.0030
      192 H9     *pz        0.0000    0.0000   -0.0000   -0.0000   -0.0000   -0.0000    0.0000    0.0000   -0.0000    0.0000
      193 H9     *pz        0.0000    0.0000    0.0000   -0.0000   -0.0000    0.0000    0.0000    0.0000   -0.0000    0.0000
      194 H10    1s        -0.0003   -0.0002    0.0002   -0.0003   -0.0002   -0.0003   -0.0000   -0.0002    0.0810    0.0698
      195 H10    *s        -0.0025   -0.0017   -0.0014   -0.0045   -0.0013   -0.0001   -0.0013    0.0004   -0.0012   -0.0183
      196 H10    *s        -0.0004    0.0005   -0.0011    0.0003   -0.0003   -0.0009    0.0013    0.0011    0.0013   -0.0047
      197 H10    *px        0.0000    0.0000    0.0001    0.0000    0.0000   -0.0002   -0.0001   -0.0001   -0.0038   -0.0017
      198 H10    *px        0.0005    0.0001    0.0003    0.0009    0.0009    0.0002   -0.0001   -0.0002   -0.0084   -0.0026
      199 H10    *py       -0.0001   -0.0000   -0.0002    0.0000    0.0002    0.0002    0.0000   -0.0000    0.0075    0.0067
      200 H10    *py       -0.0006   -0.0005   -0.0001   -0.0013   -0.0002   -0.0001   -0.0004    0.0002    0.0066    0.0012
      201 H10    *pz        0.0000   -0.0000    0.0000   -0.0000   -0.0000    0.0000    0.0000    0.0000    0.0000    0.0000
      202 H10    *pz        0.0000   -0.0000    0.0000   -0.0000   -0.0000    0.0000    0.0000    0.0000   -0.0000   -0.0000
      203 H11    1s        -0.0001   -0.0001    0.0000    0.0000    0.0003    0.0001    0.0003    0.0011    0.0062    0.0236
      204 H11    *s        -0.0023   -0.0023   -0.0037   -0.0041    0.0001    0.0029    0.0032    0.0051    0.0156   -0.0129
      205 H11    *s         0.0004   -0.0015    0.0008   -0.0008    0.0002    0.0004    0.0021   -0.0018   -0.0087   -0.0033
      206 H11    *px        0.0000    0.0000    0.0000    0.0000   -0.0000   -0.0000   -0.0001    0.0001   -0.0010   -0.0021
      207 H11    *px        0.0003    0.0010    0.0012    0.0008    0.0004    0.0002   -0.0008   -0.0003   -0.0087   -0.0128
      208 H11    *py       -0.0000    0.0000    0.0000   -0.0000   -0.0001   -0.0000   -0.0000    0.0001   -0.0013   -0.0036
      209 H11    *py        0.0005    0.0003    0.0008    0.0011   -0.0002   -0.0010   -0.0001   -0.0016   -0.0077    0.0036
      210 H11    *pz       -0.0000   -0.0000   -0.0000    0.0000   -0.0000    0.0000    0.0000   -0.0000   -0.0000   -0.0000
      211 H11    *pz       -0.0000   -0.0000   -0.0000   -0.0000   -0.0000   -0.0000    0.0000   -0.0000    0.0000    0.0000
      212 H12    1s         0.0001    0.0001   -0.0000   -0.0005   -0.0003   -0.0003    0.0010    0.0001    0.0116    0.0016
      213 H12    *s         0.0002    0.0032    0.0034    0.0021    0.0034    0.0040    0.0084    0.0077   -0.0064   -0.0615
      214 H12    *s        -0.0009   -0.0000   -0.0016    0.0014    0.0006    0.0005   -0.0018    0.0019    0.0063    0.0034
      215 H12    *px        0.0000   -0.0000   -0.0000   -0.0000    0.0000   -0.0001   -0.0000   -0.0001   -0.0003    0.0009
      216 H12    *px       -0.0002    0.0008    0.0006   -0.0005    0.0013    0.0006   -0.0003    0.0005    0.0023   -0.0101
      217 H12    *py       -0.0001   -0.0000    0.0000    0.0002    0.0001    0.0001    0.0000   -0.0000   -0.0009   -0.0004
      218 H12    *py       -0.0002   -0.0007   -0.0008   -0.0009   -0.0008   -0.0013   -0.0035   -0.0024    0.0038    0.0115
      219 H12    *pz        0.0000   -0.0000   -0.0000   -0.0000    0.0000    0.0000    0.0000   -0.0000    0.0000   -0.0000
      220 H12    *pz        0.0000   -0.0000   -0.0000    0.0000    0.0000    0.0000   -0.0000    0.0000    0.0000   -0.0000
 
          Orbital           11        12        13        14        15        16        17        18        19        20    
          Energy           -1.2940   -1.2385   -1.0492   -0.9121   -0.8839   -0.7856   -0.7490   -0.7037   -0.6697   -0.6581
          Occ. No.          2.0000    2.0000    2.0000    2.0000    2.0000    2.0000    2.0000    2.0000    2.0000    2.0000
 
        1 N1     1s         0.0146   -0.0116    0.0026   -0.0033    0.0009   -0.0012    0.0011    0.0004   -0.0006   -0.0000
        2 N1     2s        -0.5502    0.4482   -0.2293    0.0335   -0.1486    0.0653   -0.0602   -0.1301    0.0198   -0.0000
        3 N1     *s        -0.0169    0.0212   -0.0092    0.0105    0.0041   -0.0020   -0.0535   -0.0101    0.0147    0.0001
        4 N1     *s        -0.0334   -0.0027   -0.0477    0.0251   -0.0013   -0.0222    0.0105   -0.0109    0.0482   -0.0001
        5 N1     2px       -0.0572   -0.0088    0.0968   -0.0731    0.2187   -0.4058    0.1089   -0.3277   -0.2303    0.0000
        6 N1     *px       -0.0766    0.0514   -0.0239    0.0393   -0.0539    0.0839   -0.0238    0.0408    0.0500   -0.0000
        7 N1     *px       -0.0131    0.0091   -0.0139    0.0291    0.0065   -0.0077   -0.0148    0.0032    0.0075   -0.0000
        8 N1     2py       -0.0040    0.0232    0.1536    0.3933   -0.0268   -0.0834   -0.3915   -0.0368   -0.0500    0.0000
        9 N1     *py       -0.0255    0.0091    0.0024   -0.0232    0.0323   -0.0064    0.0566   -0.0002   -0.0192   -0.0000
       10 N1     *py        0.0227   -0.0151    0.0290    0.0472    0.0003   -0.0147   -0.0663   -0.0281   -0.0205    0.0000
       11 N1     2pz       -0.0000    0.0000    0.0000   -0.0000   -0.0000    0.0001   -0.0000    0.0000    0.0000    0.3654
       12 N1     *pz        0.0000   -0.0000    0.0000   -0.0000    0.0000   -0.0000    0.0000   -0.0000   -0.0000    0.0324
       13 N1     *pz        0.0000   -0.0000    0.0000   -0.0000    0.0000    0.0000    0.0000   -0.0000   -0.0000    0.0105
       14 N1     *d2-       0.0002    0.0045    0.0126    0.0148    0.0000   -0.0090   -0.0057   -0.0079   -0.0090    0.0000
       15 N1     *d2-      -0.0094    0.0261   -0.0006    0.0047   -0.0089    0.0171    0.0159    0.0221    0.0020    0.0000
       16 N1     *d1-       0.0000   -0.0000   -0.0000   -0.0000    0.0000   -0.0000    0.0000   -0.0000   -0.0000   -0.0069
       17 N1     *d1-       0.0000   -0.0000    0.0000   -0.0000    0.0000   -0.0000    0.0000   -0.0000    0.0000   -0.0058
       18 N1     *d0        0.0101   -0.0071    0.0016    0.0001   -0.0003    0.0008   -0.0001    0.0000    0.0003   -0.0000
       19 N1     *d0       -0.0130    0.0089   -0.0094   -0.0025   -0.0087    0.0128   -0.0138    0.0053    0.0090   -0.0000
       20 N1     *d1+      -0.0000    0.0000    0.0000    0.0000    0.0000   -0.0000   -0.0000    0.0000    0.0000    0.0074
       21 N1     *d1+      -0.0000    0.0000    0.0000    0.0000   -0.0000    0.0000   -0.0000    0.0000    0.0000    0.0257
       22 N1     *d2+       0.0011   -0.0010    0.0016    0.0063   -0.0052    0.0085   -0.0121   -0.0017    0.0114   -0.0000
       23 N1     *d2+      -0.0064   -0.0260    0.0284   -0.0286    0.0314   -0.0402    0.0417   -0.0541   -0.0131   -0.0000
       24 C2     1s         0.0057    0.0015    0.0060   -0.0021    0.0001   -0.0001    0.0008    0.0031   -0.0064   -0.0000
       25 C2     2s        -0.0987   -0.0458   -0.1662   -0.3517    0.3517    0.0253    0.0802    0.2131   -0.2213    0.0000
       26 C2     *s         0.0173    0.0426    0.1097    0.0769   -0.0365   -0.0473   -0.0196   -0.0033    0.0098   -0.0000
       27 C2     *s         0.0409    0.0099    0.0655    0.0901   -0.0899   -0.0666   -0.0071    0.0666   -0.1449   -0.0000
       28 C2     2px       -0.1566   -0.2208   -0.0252    0.0131    0.2841   -0.0650   -0.3456    0.0217    0.2612    0.0000
       29 C2     *px        0.1021    0.1745   -0.0236   -0.0436   -0.1212    0.0619    0.0687    0.0792   -0.0527    0.0000
       30 C2     *px        0.0027    0.0028    0.0043    0.0029   -0.0262   -0.0175    0.0378    0.0196   -0.0141    0.0001
       31 C2     2py       -0.2555    0.1032   -0.1334   -0.2381   -0.0440   -0.0957    0.2593   -0.1461    0.1902    0.0000
       32 C2     *py        0.1443   -0.0742    0.0816    0.1375    0.0908    0.0516   -0.0292    0.0309   -0.1394   -0.0000
       33 C2     *py        0.0034    0.0059    0.0272    0.0156    0.0147    0.0057   -0.0352    0.0177   -0.0175   -0.0001
       34 C2     2pz       -0.0000    0.0000   -0.0000    0.0000    0.0000   -0.0000    0.0000    0.0000    0.0000    0.4381
       35 C2     *pz        0.0000   -0.0000    0.0000    0.0000    0.0000   -0.0000    0.0000   -0.0000   -0.0000   -0.1413
       36 C2     *pz       -0.0000    0.0000   -0.0000    0.0000   -0.0000   -0.0000    0.0000    0.0000   -0.0000    0.0024
       37 C2     *d2-       0.0299   -0.0002    0.0163    0.0074   -0.0061   -0.0229   -0.0065    0.0154   -0.0194    0.0000
       38 C2     *d2-      -0.0061    0.0032   -0.0421   -0.0064    0.0289    0.0520   -0.0022    0.0188   -0.0070   -0.0000
       39 C2     *d1-      -0.0000    0.0000   -0.0000   -0.0000    0.0000    0.0000    0.0000    0.0000   -0.0000   -0.0011
       40 C2     *d1-       0.0000   -0.0000    0.0000   -0.0000    0.0000   -0.0000    0.0000   -0.0000   -0.0000   -0.0016
       41 C2     *d0        0.0064    0.0015    0.0065    0.0084   -0.0088   -0.0015   -0.0016   -0.0043    0.0050    0.0000
       42 C2     *d0        0.0131    0.0010    0.0060    0.0056   -0.0097   -0.0028   -0.0001   -0.0008   -0.0043    0.0000
       43 C2     *d1+      -0.0000   -0.0000   -0.0000    0.0000    0.0000   -0.0000   -0.0000    0.0000   -0.0000   -0.0005
       44 C2     *d1+      -0.0000    0.0000   -0.0000    0.0000    0.0000   -0.0000    0.0000    0.0000   -0.0000   -0.0037
       45 C2     *d2+       0.0021   -0.0331    0.0032    0.0057    0.0095    0.0068   -0.0180    0.0245    0.0197   -0.0000
       46 C2     *d2+       0.0080    0.0149   -0.0040   -0.0149   -0.0052    0.0050   -0.0734    0.0233    0.0293    0.0000
       47 N3     1s         0.0081    0.0161    0.0018   -0.0026    0.0009   -0.0010    0.0002   -0.0001   -0.0012    0.0000
       48 N3     2s        -0.3059   -0.6258   -0.0809    0.1775   -0.0101    0.0740    0.0238   -0.0130    0.0927   -0.0000
       49 N3     *s         0.0003   -0.0095    0.0015    0.0132    0.0045    0.0031    0.0276   -0.0268   -0.0179   -0.0000
       50 N3     *s        -0.0423   -0.0308   -0.0284   -0.0233   -0.0155   -0.0366   -0.0195   -0.0250    0.0567    0.0000
       51 N3     2px        0.0299    0.0062    0.0623    0.1535   -0.4450   -0.0256    0.3207   -0.1175   -0.0985    0.0000
       52 N3     *px        0.0027    0.0209   -0.0038   -0.0323    0.0549    0.0024   -0.0495    0.0366    0.0083   -0.0000
       53 N3     *px        0.0163    0.0101    0.0041    0.0190   -0.1027   -0.0447    0.0551    0.0135   -0.0159    0.0001
       54 N3     2py       -0.0441   -0.0050    0.0665   -0.2210   -0.1661   -0.3780   -0.0929    0.3851    0.1888   -0.0000
       55 N3     *py       -0.0319   -0.0578   -0.0229    0.0570    0.0117    0.0754    0.0140   -0.0707   -0.0064    0.0000
       56 N3     *py       -0.0002   -0.0116   -0.0176    0.0006   -0.0435   -0.0221    0.0215   -0.0097   -0.0004    0.0000
       57 N3     2pz        0.0000   -0.0000   -0.0000   -0.0000   -0.0000   -0.0000    0.0000    0.0000    0.0000    0.3977
       58 N3     *pz       -0.0000    0.0000   -0.0000    0.0000   -0.0000   -0.0000   -0.0000    0.0000    0.0000    0.0324
       59 N3     *pz       -0.0000   -0.0000   -0.0000   -0.0000   -0.0000   -0.0000   -0.0000   -0.0000    0.0000    0.0126
       60 N3     *d2-       0.0030   -0.0017    0.0067   -0.0004   -0.0161   -0.0107   -0.0007    0.0115   -0.0010   -0.0000
       61 N3     *d2-       0.0121   -0.0214   -0.0017    0.0304    0.0178    0.0355    0.0081   -0.0250   -0.0317   -0.0000
       62 N3     *d1-      -0.0000   -0.0000    0.0000   -0.0000    0.0000    0.0000    0.0000   -0.0000    0.0000    0.0071
       63 N3     *d1-      -0.0000   -0.0000    0.0000    0.0000    0.0000   -0.0000    0.0000    0.0000   -0.0000    0.0222
       64 N3     *d0        0.0054    0.0093    0.0005   -0.0004    0.0001    0.0004    0.0000   -0.0001    0.0004    0.0000
       65 N3     *d0       -0.0088   -0.0136    0.0001    0.0064    0.0012    0.0107    0.0094   -0.0136   -0.0083   -0.0000
       66 N3     *d1+       0.0000   -0.0000    0.0000   -0.0000   -0.0000    0.0000    0.0000   -0.0000    0.0000   -0.0073
       67 N3     *d1+       0.0000   -0.0000    0.0000    0.0000    0.0000    0.0000    0.0000   -0.0000    0.0000   -0.0105
       68 N3     *d2+      -0.0007    0.0002   -0.0050   -0.0055    0.0151   -0.0053   -0.0086    0.0106    0.0014    0.0000
       69 N3     *d2+       0.0118   -0.0133   -0.0124    0.0385   -0.0057    0.0236    0.0438   -0.0310   -0.0397    0.0000
       70 C4     1s         0.0007    0.0055   -0.0054    0.0019    0.0050   -0.0017    0.0008    0.0017   -0.0027   -0.0000
       71 C4     2s        -0.0182   -0.0791    0.2037   -0.1877   -0.4313   -0.1099   -0.1551    0.1263   -0.2667   -0.0000
       72 C4     *s         0.0948    0.0607   -0.1546   -0.0959   -0.0419   -0.0658    0.0259    0.0384   -0.0475    0.0003
       73 C4     *s        -0.0756   -0.0162    0.2267   -0.0051    0.2018    0.1640    0.0872   -0.0402    0.0238   -0.0000
       74 C4     2px        0.1627    0.1971   -0.1315    0.0773    0.1975    0.1175   -0.0023   -0.0697   -0.2635    0.0000
       75 C4     *px       -0.1631   -0.1493    0.0380   -0.0318   -0.0116   -0.0399   -0.0163    0.0302    0.1701   -0.0001
       76 C4     *px       -0.0016   -0.0022   -0.0057    0.0216   -0.0067   -0.0273    0.0224    0.0110   -0.0084   -0.0000
       77 C4     2py        0.0221    0.1029    0.1470   -0.1946    0.1188    0.2128   -0.2951   -0.1524   -0.0718   -0.0000
       78 C4     *py        0.0171   -0.0905   -0.1509    0.0524   -0.1307   -0.0687    0.1248    0.0654   -0.0743    0.0001
       79 C4     *py       -0.0088    0.0055    0.0633    0.0222   -0.0027    0.0019    0.0596    0.0126    0.0009    0.0000
       80 C4     2pz        0.0000   -0.0000    0.0000   -0.0000    0.0000    0.0000    0.0000   -0.0000    0.0000    0.2213
       81 C4     *pz       -0.0000    0.0000    0.0000    0.0000    0.0000   -0.0000    0.0000    0.0000   -0.0000   -0.0953
       82 C4     *pz       -0.0000    0.0000    0.0000    0.0000    0.0000   -0.0000   -0.0000    0.0000   -0.0000    0.0067
       83 C4     *d2-      -0.0108   -0.0235   -0.0121    0.0077   -0.0150   -0.0102    0.0028    0.0133    0.0108   -0.0000
       84 C4     *d2-      -0.0090    0.0074   -0.0073   -0.0076    0.0126   -0.0486    0.0150    0.0199    0.0420   -0.0000
       85 C4     *d1-       0.0000   -0.0000    0.0000   -0.0000    0.0000    0.0000    0.0000   -0.0000   -0.0000   -0.0085
       86 C4     *d1-      -0.0000    0.0000    0.0000    0.0000    0.0000   -0.0000    0.0000    0.0000   -0.0000    0.0035
       87 C4     *d0        0.0008    0.0044   -0.0067    0.0041    0.0111    0.0023    0.0004   -0.0017    0.0054   -0.0000
       88 C4     *d0        0.0073    0.0037   -0.0085    0.0061    0.0111    0.0036   -0.0017    0.0048   -0.0024   -0.0000
       89 C4     *d1+      -0.0000   -0.0000   -0.0000    0.0000   -0.0000   -0.0000   -0.0000    0.0000    0.0000   -0.0059
       90 C4     *d1+      -0.0000    0.0000   -0.0000    0.0000   -0.0000   -0.0000    0.0000    0.0000   -0.0000    0.0161
       91 C4     *d2+       0.0136    0.0107   -0.0132    0.0007    0.0174   -0.0170   -0.0029    0.0145   -0.0084    0.0000
       92 C4     *d2+      -0.0011   -0.0066    0.0406    0.0457   -0.0236    0.0106    0.0470   -0.0271   -0.0177   -0.0000
       93 C5     1s         0.0042   -0.0011   -0.0220    0.0061   -0.0012   -0.0117   -0.0024    0.0020   -0.0047   -0.0000
       94 C5     2s        -0.1003    0.0328    0.5872   -0.2650    0.0110    0.3419    0.0148   -0.1144    0.1052   -0.0000
       95 C5     *s         0.1697   -0.0926   -0.1258   -0.0956   -0.0358   -0.0869    0.0368   -0.0388    0.0928    0.0001
       96 C5     *s        -0.0222    0.0414   -0.2643    0.2660    0.0032   -0.2224   -0.0128    0.1628   -0.1048   -0.0001
       97 C5     2px        0.0537   -0.0209   -0.1171   -0.0981   -0.1164    0.1504   -0.2396    0.0139   -0.0913    0.0000
       98 C5     *px       -0.0956    0.0618    0.1071    0.2376    0.1380   -0.0710    0.0548   -0.0071   -0.0098   -0.0002
       99 C5     *px        0.0143   -0.0062   -0.0145   -0.0913   -0.0444    0.0225   -0.0713   -0.0406    0.0075    0.0002
      100 C5     2py        0.0171    0.0169   -0.0339    0.1135    0.1378    0.1211    0.2331    0.0766    0.1291   -0.0000
      101 C5     *py        0.1091    0.0246   -0.0998   -0.0533   -0.1507   -0.0716   -0.1242   -0.0043   -0.1275    0.0002
      102 C5     *py       -0.0296   -0.0077    0.0585    0.0088    0.0386    0.0060    0.0596    0.0037   -0.0043    0.0001
      103 C5     2pz       -0.0000    0.0000    0.0000    0.0000    0.0000    0.0000    0.0000    0.0000    0.0000    0.1085
      104 C5     *pz       -0.0000    0.0000    0.0000    0.0000    0.0000    0.0000    0.0000    0.0000    0.0000    0.0211
      105 C5     *pz        0.0000   -0.0000    0.0001   -0.0001    0.0000    0.0001    0.0000   -0.0001    0.0000   -0.0117
      106 C5     *d2-      -0.0049   -0.0011   -0.0065    0.0043   -0.0023    0.0015   -0.0007   -0.0130    0.0087    0.0000
      107 C5     *d2-      -0.0384   -0.0281   -0.0465   -0.0237   -0.0144   -0.0685    0.0246    0.0292   -0.0055    0.0001
      108 C5     *d1-      -0.0000    0.0000   -0.0000    0.0000    0.0000    0.0000    0.0000    0.0000    0.0000   -0.0061
      109 C5     *d1-      -0.0000    0.0000    0.0000   -0.0000   -0.0000    0.0000   -0.0000   -0.0000   -0.0000   -0.0348
      110 C5     *d0        0.0025   -0.0005   -0.0124    0.0044    0.0005   -0.0038    0.0005    0.0004   -0.0006    0.0000
      111 C5     *d0        0.0030   -0.0047    0.0027   -0.0092   -0.0051   -0.0040    0.0016   -0.0009    0.0020    0.0000
      112 C5     *d1+       0.0000   -0.0000   -0.0000   -0.0000    0.0000   -0.0000   -0.0000   -0.0000   -0.0000   -0.0053
      113 C5     *d1+       0.0000   -0.0000   -0.0000   -0.0000    0.0000   -0.0000   -0.0000   -0.0000   -0.0000   -0.0264
      114 C5     *d2+      -0.0030    0.0101    0.0062    0.0116    0.0176   -0.0030    0.0175   -0.0049    0.0034    0.0000
      115 C5     *d2+       0.0481    0.0092   -0.0225   -0.0540   -0.0574    0.0183   -0.0035    0.0106   -0.0330    0.0001
      116 C6     1s         0.0112   -0.0105   -0.0129   -0.0089   -0.0046    0.0000   -0.0024   -0.0019   -0.0013   -0.0000
      117 C6     2s        -0.2715    0.1883    0.4844    0.3534    0.2457   -0.1751    0.1601    0.0958   -0.0869   -0.0000
      118 C6     *s         0.0161   -0.0980   -0.0769    0.0367    0.0816   -0.0341   -0.0453   -0.0952    0.0337   -0.0003
      119 C6     *s         0.0535   -0.0362    0.0154   -0.3802   -0.1022    0.1336   -0.0602   -0.1985    0.1015    0.0004
      120 C6     2px        0.0527   -0.0660    0.1822   -0.2099    0.0501    0.1487    0.2575   -0.0766    0.2001   -0.0000
      121 C6     *px       -0.1647    0.1193   -0.0429    0.2873    0.0597   -0.0436   -0.1285    0.1127   -0.0717   -0.0001
      122 C6     *px        0.0355   -0.0174    0.0286   -0.0612   -0.0288    0.0322   -0.0518   -0.0398    0.0215   -0.0000
      123 C6     2py        0.1008   -0.0634    0.0133    0.0549    0.0432    0.1498    0.1761    0.4509    0.0407   -0.0001
      124 C6     *py       -0.1371    0.0155   -0.0270   -0.0932   -0.0130   -0.0582    0.0247   -0.1761   -0.0110    0.0001
      125 C6     *py        0.0092    0.0061   -0.0174    0.0293   -0.0150   -0.0080   -0.0368    0.0023   -0.0050   -0.0001
      126 C6     2pz       -0.0000    0.0000   -0.0000    0.0000   -0.0000   -0.0000   -0.0000    0.0000    0.0000    0.1610
      127 C6     *pz        0.0000    0.0000   -0.0000    0.0000   -0.0000   -0.0000   -0.0000   -0.0000   -0.0000   -0.0715
      128 C6     *pz       -0.0000    0.0000   -0.0001    0.0001   -0.0001   -0.0001   -0.0001    0.0000    0.0000    0.0048
      129 C6     *d2-      -0.0151    0.0112   -0.0116    0.0143   -0.0030   -0.0058   -0.0145   -0.0209   -0.0026   -0.0000
      130 C6     *d2-       0.0185   -0.0483    0.0229   -0.0409    0.0037   -0.0226    0.0631    0.0338    0.0016    0.0000
      131 C6     *d1-       0.0000    0.0000   -0.0000    0.0000   -0.0000   -0.0000   -0.0000   -0.0000   -0.0000   -0.0137
      132 C6     *d1-       0.0000   -0.0000    0.0000   -0.0000   -0.0000    0.0000   -0.0000   -0.0000    0.0000    0.0373
      133 C6     *d0        0.0103   -0.0077   -0.0098   -0.0071   -0.0029    0.0035    0.0030    0.0037    0.0013   -0.0000
      134 C6     *d0       -0.0051    0.0051    0.0040    0.0067    0.0085   -0.0014    0.0083    0.0034   -0.0056   -0.0000
      135 C6     *d1+      -0.0000    0.0000    0.0000    0.0000    0.0000    0.0000    0.0000    0.0000   -0.0000   -0.0032
      136 C6     *d1+       0.0000   -0.0000   -0.0000   -0.0000    0.0000    0.0000    0.0000   -0.0000   -0.0000   -0.0097
      137 C6     *d2+      -0.0003   -0.0036    0.0170    0.0004   -0.0016    0.0191    0.0021   -0.0015    0.0148   -0.0000
      138 C6     *d2+      -0.0798    0.0238    0.0167    0.0361    0.0411   -0.0112    0.0463    0.0230   -0.0243   -0.0001
      139 O7     1s        -0.0069   -0.0011   -0.0023   -0.0007    0.0011    0.0019    0.0002   -0.0004    0.0012   -0.0000
      140 O7     2s         0.3958    0.0676    0.1483    0.1414   -0.1650   -0.1339   -0.0624   -0.1555    0.2432    0.0000
      141 O7     *s         0.0050    0.0031    0.0203    0.0236   -0.0307   -0.0352   -0.0152   -0.0493    0.0874    0.0000
      142 O7     *s         0.0421    0.0061    0.0211    0.0239   -0.0365   -0.0328   -0.0110   -0.0595    0.0940    0.0000
      143 O7     2px        0.0481   -0.0267    0.0017    0.0072    0.1373    0.0760   -0.1207    0.1442   -0.3012    0.0000
      144 O7     *px       -0.0131   -0.0081   -0.0026   -0.0005   -0.0070   -0.0055   -0.0156   -0.0133    0.0456    0.0000
      145 O7     *px        0.0069    0.0021   -0.0020    0.0029   -0.0064   -0.0001   -0.0113   -0.0034    0.0079    0.0000
      146 O7     2py        0.0447    0.0327   -0.0271   -0.0912    0.0002    0.0896    0.1969    0.1896   -0.3481   -0.0000
      147 O7     *py       -0.0194    0.0001   -0.0040    0.0039   -0.0059   -0.0116    0.0034   -0.0340    0.0438    0.0000
      148 O7     *py        0.0066   -0.0014   -0.0017    0.0029   -0.0041   -0.0029    0.0108   -0.0128    0.0054    0.0000
      149 O7     2pz        0.0000   -0.0000   -0.0000   -0.0000   -0.0000    0.0000    0.0000    0.0000    0.0000    0.3388
      150 O7     *pz        0.0000   -0.0000    0.0000   -0.0000    0.0000    0.0000   -0.0000   -0.0000    0.0000    0.0064
      151 O7     *pz        0.0000   -0.0000   -0.0000    0.0000   -0.0000   -0.0000   -0.0000    0.0000    0.0000    0.0081
      152 O7     *d2-       0.0060    0.0001    0.0004   -0.0009    0.0031    0.0037    0.0006    0.0075   -0.0141   -0.0000
      153 O7     *d2-      -0.0089   -0.0041   -0.0037   -0.0061    0.0051    0.0002   -0.0013    0.0009    0.0022   -0.0000
      154 O7     *d1-       0.0000   -0.0000    0.0000   -0.0000    0.0000    0.0000    0.0000   -0.0000    0.0000    0.0119
      155 O7     *d1-       0.0000   -0.0000    0.0000   -0.0000    0.0000   -0.0000    0.0000   -0.0000    0.0000    0.0162
      156 O7     *d0       -0.0039   -0.0006   -0.0004    0.0003   -0.0009   -0.0023   -0.0012   -0.0039    0.0078    0.0000
      157 O7     *d0        0.0039    0.0014    0.0013    0.0027   -0.0007    0.0005   -0.0002    0.0017   -0.0021   -0.0000
      158 O7     *d1+      -0.0000    0.0000   -0.0000    0.0000    0.0000   -0.0000    0.0000    0.0000    0.0000    0.0099
      159 O7     *d1+       0.0000   -0.0000    0.0000   -0.0000    0.0000   -0.0000    0.0000   -0.0000    0.0000    0.0137
      160 O7     *d2+      -0.0002   -0.0043    0.0011    0.0034    0.0047   -0.0003   -0.0103    0.0003    0.0036    0.0000
      161 O7     *d2+       0.0032   -0.0082    0.0028    0.0042    0.0035    0.0007   -0.0132    0.0083    0.0036   -0.0000
      162 O8     1s        -0.0042   -0.0041    0.0015    0.0001   -0.0018    0.0006    0.0009   -0.0009    0.0011    0.0000
      163 O8     2s         0.2430    0.2544   -0.1470    0.0753    0.2510   -0.0214    0.0628   -0.0248    0.2641   -0.0000
      164 O8     *s         0.0081    0.0085   -0.0171    0.0038    0.0364   -0.0033    0.0023    0.0021    0.0749   -0.0000
      165 O8     *s         0.0397    0.0259   -0.0541   -0.0142    0.0202   -0.0276   -0.0221    0.0077    0.0611   -0.0000
      166 O8     2px       -0.0427   -0.0301   -0.0086    0.0180    0.1211    0.0057    0.0402   -0.0467    0.4126   -0.0000
      167 O8     *px        0.0147    0.0120   -0.0023   -0.0071   -0.0106    0.0005   -0.0064    0.0060   -0.0516    0.0000
      168 O8     *px       -0.0071   -0.0036    0.0082    0.0039   -0.0028    0.0076    0.0028   -0.0017    0.0002    0.0000
      169 O8     2py        0.0115    0.0239    0.0323   -0.0757    0.0275    0.0971   -0.1805   -0.0491   -0.1136    0.0000
      170 O8     *py        0.0003    0.0021    0.0071    0.0039    0.0035    0.0095   -0.0012   -0.0090    0.0031   -0.0000
      171 O8     *py        0.0026   -0.0019   -0.0042   -0.0019   -0.0036    0.0015   -0.0074   -0.0056   -0.0053   -0.0000
      172 O8     2pz       -0.0000    0.0000   -0.0000    0.0000   -0.0000   -0.0000    0.0000    0.0000    0.0000    0.1406
      173 O8     *pz        0.0000   -0.0000   -0.0000   -0.0000   -0.0000    0.0000   -0.0000   -0.0000    0.0000    0.0013
      174 O8     *pz       -0.0000    0.0000   -0.0000    0.0000   -0.0000   -0.0000   -0.0000    0.0000   -0.0000   -0.0001
      175 O8     *d2-      -0.0016   -0.0030   -0.0023    0.0036   -0.0017   -0.0047    0.0071    0.0028    0.0058   -0.0000
      176 O8     *d2-      -0.0007   -0.0035   -0.0061    0.0039   -0.0014   -0.0079    0.0077    0.0070    0.0038    0.0000
      177 O8     *d1-       0.0000   -0.0000    0.0000   -0.0000    0.0000    0.0000    0.0000   -0.0000    0.0000    0.0010
      178 O8     *d1-       0.0000   -0.0000    0.0000   -0.0000    0.0000    0.0000    0.0000   -0.0000    0.0000    0.0012
      179 O8     *d0       -0.0025   -0.0022    0.0005    0.0001    0.0014   -0.0005    0.0010   -0.0004    0.0070   -0.0000
      180 O8     *d0        0.0031    0.0024   -0.0011   -0.0007    0.0008    0.0002    0.0004    0.0004   -0.0010    0.0000
      181 O8     *d1+      -0.0000    0.0000   -0.0000    0.0000   -0.0000   -0.0000   -0.0000    0.0000   -0.0000   -0.0068
      182 O8     *d1+      -0.0000    0.0000   -0.0000    0.0000   -0.0000   -0.0000   -0.0000    0.0000   -0.0000   -0.0109
      183 O8     *d2+       0.0034    0.0024   -0.0013    0.0006   -0.0038   -0.0013    0.0000    0.0020   -0.0119    0.0000
      184 O8     *d2+      -0.0067   -0.0058    0.0033   -0.0011   -0.0068   -0.0014   -0.0020    0.0025    0.0011   -0.0000
      185 H9     1s        -0.1902    0.2024   -0.1601    0.1503   -0.2786    0.4172   -0.2265    0.2634    0.2628   -0.0000
      186 H9     *s         0.0814   -0.0373    0.0343   -0.0227    0.0983   -0.0982    0.0393   -0.0549   -0.0747   -0.0000
      187 H9     *s         0.0024    0.0024   -0.0080    0.0069   -0.0165   -0.0007   -0.0093    0.0089    0.0122    0.0002
      188 H9     *px       -0.0173    0.0164   -0.0101    0.0095   -0.0165    0.0212   -0.0110    0.0096    0.0117    0.0000
      189 H9     *px       -0.0012    0.0200   -0.0121    0.0129   -0.0092    0.0311   -0.0163    0.0149    0.0129   -0.0000
      190 H9     *py        0.0035   -0.0016    0.0058    0.0033    0.0028   -0.0064   -0.0029   -0.0033   -0.0035   -0.0000
      191 H9     *py        0.0001    0.0002    0.0002   -0.0178   -0.0013   -0.0027    0.0151   -0.0037    0.0054    0.0000
      192 H9     *pz        0.0000   -0.0000    0.0000   -0.0000    0.0000   -0.0000    0.0000   -0.0000   -0.0000    0.0104
      193 H9     *pz        0.0000   -0.0000    0.0000    0.0000    0.0000   -0.0000   -0.0000    0.0000   -0.0000    0.0012
      194 H10    1s        -0.0843   -0.2487   -0.0667    0.3034   -0.0073    0.3518    0.2076   -0.4064   -0.1578    0.0000
      195 H10    *s         0.0594    0.0765    0.0081   -0.0595    0.0056   -0.0713   -0.0177    0.1064   -0.0130   -0.0000
      196 H10    *s        -0.0019    0.0004    0.0138    0.0082    0.0041    0.0036    0.0045   -0.0001    0.0013   -0.0000
      197 H10    *px        0.0042    0.0075    0.0044   -0.0065   -0.0066   -0.0100   -0.0001    0.0082    0.0017   -0.0000
      198 H10    *px       -0.0030    0.0019    0.0062   -0.0078    0.0155   -0.0074   -0.0138    0.0040    0.0099   -0.0000
      199 H10    *py       -0.0083   -0.0216   -0.0039    0.0192   -0.0038    0.0177    0.0112   -0.0195   -0.0055    0.0000
      200 H10    *py        0.0064   -0.0134   -0.0052    0.0260    0.0050    0.0271    0.0198   -0.0193   -0.0232   -0.0000
      201 H10    *pz       -0.0000   -0.0000   -0.0000    0.0000   -0.0000   -0.0000    0.0000    0.0000    0.0000    0.0115
[...]
   1740 ( 4:1:  1/  2) 22u2u22d00     -0.17341      0.03007
   1746 ( 4:1:  7/  2) 22u2u220d0     -0.05599      0.00313
   1839 ( 4:1:  1/  3) 2u22u22d00     -0.20699      0.04284
 
 *******************************************************************************
 *
  READCI called for state                     17
  This is on JobIph nr.                     2
  JobIph file name:
 JOB002                                                                         
                                                  
  It is root nr.                    15
  Its length NCI=                 13860
  Its symmetry  =                     1
  Spin multiplic=                     2
  Occupation of active orbitals, and spin coupling
  of open shells. (u,d: Spin up or down).
  SGUGA info is (Midvert:IsyUp:UpperWalk/LowerWalk)
   Conf   SGUGA info  Occupation        Coef       Weight                       
  
      4 ( 1:1:  4/  1) 22222udu00     -0.77671      0.60327
      6 ( 1:1:  6/  1) 22222uud00     -0.17405      0.03029
     42 ( 2:1:  2/  1) 2222u2du00      0.32950      0.10857
     44 ( 2:1:  4/  1) 2222u2ud00      0.07530      0.00567
     50 ( 2:1: 10/  1) 2222u2d0u0     -0.35334      0.12485
     58 ( 2:1: 18/  1) 2222u2u0d0     -0.10749      0.01155
    591 ( 3:1:  1/  2) 222ud22u00     -0.05402      0.00292
    666 ( 3:1:  1/  3) 22u2d22u00      0.19810      0.03924
    669 ( 3:1:  4/  3) 22u2d220u0      0.06016      0.00362
    741 ( 3:1:  1/  4) 2u22d22u00      0.22459      0.05044
   1624 ( 3:1: 59/ 15) 02222udu02     -0.05812      0.00338
 
 *******************************************************************************
 *
  READCI called for state                     18
  This is on JobIph nr.                     2
  JobIph file name:
 JOB002                                                                         
                                                  
  It is root nr.                    16
  Its length NCI=                 13860
  Its symmetry  =                     1
  Spin multiplic=                     2
  Occupation of active orbitals, and spin coupling
  of open shells. (u,d: Spin up or down).
  SGUGA info is (Midvert:IsyUp:UpperWalk/LowerWalk)
   Conf   SGUGA info  Occupation        Coef       Weight                       
  
    234 ( 2:1:  4/  3) 22u222ud00     -0.95561      0.91318
    329 ( 2:1:  4/  4) 2u2222ud00      0.06740      0.00454
    335 ( 2:1: 10/  4) 2u2222d0u0     -0.06181      0.00382
    343 ( 2:1: 18/  4) 2u2222u0d0      0.23947      0.05735
   6114 ( 5:1: 64/ 37) 02u222ud02     -0.06730      0.00453
 
 *******************************************************************************
 *
  READCI called for state                     19
  This is on JobIph nr.                     2
  JobIph file name:
 JOB002                                                                         
                                                  
  It is root nr.                    17
  Its length NCI=                 13860
  Its symmetry  =                     1
  Spin multiplic=                     2
  Occupation of active orbitals, and spin coupling
  of open shells. (u,d: Spin up or down).
  SGUGA info is (Midvert:IsyUp:UpperWalk/LowerWalk)
   Conf   SGUGA info  Occupation        Coef       Weight                       
  
    232 ( 2:1:  2/  3) 22u222du00      0.06069      0.00368
    234 ( 2:1:  4/  3) 22u222ud00      0.05341      0.00285
    240 ( 2:1: 10/  3) 22u222d0u0      0.19680      0.03873
    327 ( 2:1:  2/  4) 2u2222du00     -0.16082      0.02586
    335 ( 2:1: 10/  4) 2u2222d0u0     -0.91648      0.83993
    343 ( 2:1: 18/  4) 2u2222u0d0     -0.05844      0.00342
   1041 ( 3:1:  1/  8) 2u2d222u00      0.06009      0.00361
   1044 ( 3:1:  4/  8) 2u2d2220u0      0.16120      0.02599
   1266 ( 3:1:  1/ 11) 2ud2222u00     -0.09368      0.00878
   1269 ( 3:1:  4/ 11) 2ud22220u0      0.14063      0.01978
   1416 ( 3:1:  1/ 13) 2022222u00     -0.05106      0.00261
   1419 ( 3:1:  4/ 13) 20222220u0      0.07073      0.00500
   6405 ( 5:1: 70/ 40) 0u2222d0u2     -0.06913      0.00478
 
 *******************************************************************************
 *
  READCI called for state                     20
  This is on JobIph nr.                     2
  JobIph file name:
 JOB002                                                                         
                                                  
  It is root nr.                    18
  Its length NCI=                 13860
  Its symmetry  =                     1
  Spin multiplic=                     2
  Occupation of active orbitals, and spin coupling
  of open shells. (u,d: Spin up or down).
  SGUGA info is (Midvert:IsyUp:UpperWalk/LowerWalk)
   Conf   SGUGA info  Occupation        Coef       Weight                       
  
      4 ( 1:1:  4/  1) 22222udu00      0.10853      0.01178
      6 ( 1:1:  6/  1) 22222uud00     -0.22886      0.05238
     42 ( 2:1:  2/  1) 2222u2du00     -0.08279      0.00685
     44 ( 2:1:  4/  1) 2222u2ud00      0.16275      0.02649
     50 ( 2:1: 10/  1) 2222u2d0u0     -0.46571      0.21688
     58 ( 2:1: 18/  1) 2222u2u0d0      0.73591      0.54157
    235 ( 2:1:  5/  3) 22u22u2d00      0.05831      0.00340
    241 ( 2:1: 11/  3) 22u22d20u0      0.06672      0.00445
    249 ( 2:1: 19/  3) 22u22u20d0      0.09743      0.00949
    336 ( 2:1: 11/  4) 2u222d20u0      0.08847      0.00783
    344 ( 2:1: 19/  4) 2u222u20d0      0.13187      0.01739
    666 ( 3:1:  1/  3) 22u2d22u00     -0.12830      0.01646
    741 ( 3:1:  1/  4) 2u22d22u00     -0.06439      0.00415
   1740 ( 4:1:  1/  2) 22u2u22d00     -0.20361      0.04146
   1839 ( 4:1:  1/  3) 2u22u22d00     -0.11649      0.01357
   1845 ( 4:1:  7/  3) 2u22u220d0     -0.06689      0.00447
   3943 ( 5:1: 78/ 14) 0222u2u0d2      0.05542      0.00307
 
 *******************************************************************************
 *
  READCI called for state                     21
  This is on JobIph nr.                     2
  JobIph file name:
 JOB002                                                                         
                                                  
  It is root nr.                    19
  Its length NCI=                 13860
  Its symmetry  =                     1
  Spin multiplic=                     2
  Occupation of active orbitals, and spin coupling
  of open shells. (u,d: Spin up or down).
  SGUGA info is (Midvert:IsyUp:UpperWalk/LowerWalk)
   Conf   SGUGA info  Occupation        Coef       Weight                       
  
      4 ( 1:1:  4/  1) 22222udu00      0.21066      0.04438
      6 ( 1:1:  6/  1) 22222uud00      0.15685      0.02460
     42 ( 2:1:  2/  1) 2222u2du00     -0.14348      0.02059
     44 ( 2:1:  4/  1) 2222u2ud00     -0.10250      0.01051
     50 ( 2:1: 10/  1) 2222u2d0u0     -0.74338      0.55261
     58 ( 2:1: 18/  1) 2222u2u0d0     -0.45045      0.20290
    233 ( 2:1:  3/  3) 22u22d2u00      0.05596      0.00313
    241 ( 2:1: 11/  3) 22u22d20u0      0.10978      0.01205
    249 ( 2:1: 19/  3) 22u22u20d0     -0.06073      0.00369
    336 ( 2:1: 11/  4) 2u222d20u0      0.14492      0.02100
    344 ( 2:1: 19/  4) 2u222u20d0     -0.08253      0.00681
    666 ( 3:1:  1/  3) 22u2d22u00     -0.20243      0.04098
    741 ( 3:1:  1/  4) 2u22d22u00     -0.11300      0.01277
    744 ( 3:1:  4/  4) 2u22d220u0     -0.06615      0.00438
   1740 ( 4:1:  1/  2) 22u2u22d00      0.12012      0.01443
   1839 ( 4:1:  1/  3) 2u22u22d00      0.07512      0.00564
   3935 ( 5:1: 70/ 14) 0222u2d0u2     -0.05599      0.00313
 
 *******************************************************************************
 *
  READCI called for state                     22
  This is on JobIph nr.                     2
  JobIph file name:
 JOB002                                                                         
                                                  
  It is root nr.                    20
  Its length NCI=                 13860
  Its symmetry  =                     1
  Spin multiplic=                     2
  Occupation of active orbitals, and spin coupling
  of open shells. (u,d: Spin up or down).
  SGUGA info is (Midvert:IsyUp:UpperWalk/LowerWalk)
   Conf   SGUGA info  Occupation        Coef       Weight                       
  
     10 ( 1:1: 10/  1) 22222ud0u0     -0.51102      0.26114
     15 ( 1:1: 15/  1) 22222uu0d0      0.77555      0.60148
     58 ( 2:1: 18/  1) 2222u2u0d0      0.05594      0.00313
    233 ( 2:1:  3/  3) 22u22d2u00     -0.06256      0.00391
    235 ( 2:1:  5/  3) 22u22u2d00     -0.08754      0.00766
    241 ( 2:1: 11/  3) 22u22d20u0      0.07445      0.00554
    249 ( 2:1: 19/  3) 22u22u20d0      0.11569      0.01338
    336 ( 2:1: 11/  4) 2u222d20u0      0.05731      0.00328
    344 ( 2:1: 19/  4) 2u222u20d0      0.09313      0.00867
    669 ( 3:1:  4/  3) 22u2d220u0      0.09680      0.00937
    744 ( 3:1:  4/  4) 2u22d220u0      0.11990      0.01438
   1635 ( 3:1: 70/ 15) 02222uu0d2      0.05862      0.00344
   1746 ( 4:1:  7/  2) 22u2u220d0      0.13897      0.01931
   1845 ( 4:1:  7/  3) 2u22u220d0      0.17183      0.02953
 
 *******************************************************************************
 *
 
  HAMILTONIAN MATRIX FOR THE ORIGINAL STATES:
 
  Diagonal, with energies
   -412.53272265   -412.32654541   -412.20771369   -412.10748365   -412.09927207
   -412.05271281   -412.03675116   -411.97718459   -411.86667870   -411.83742305
   -411.82023944   -411.81333365   -411.81181568   -411.81094246   -411.79914013
   -411.79247417   -411.79022002   -411.77794857   -411.77418485   -411.77277169
   -411.77005601   -411.74709357
 
      OVERLAP MATRIX FOR THE ORIGINAL STATES:
 
  Diagonal, with elements
      1.00000000      1.00000000      1.00000000      1.00000000      1.00000000
      1.00000000      1.00000000      1.00000000      1.00000000      1.00000000
      1.00000000      1.00000000      1.00000000      1.00000000      1.00000000
      1.00000000      1.00000000      1.00000000      1.00000000      1.00000000
      1.00000000      1.00000000
 
::    RASSI State    1     Total energy:    -412.53272265129601
::    RASSI State    2     Total energy:    -412.32654541473613
::    RASSI State    3     Total energy:    -412.20771368978586
::    RASSI State    4     Total energy:    -412.10748365129751
::    RASSI State    5     Total energy:    -412.09927206583120
::    RASSI State    6     Total energy:    -412.05271280922540
::    RASSI State    7     Total energy:    -412.03675115792595
::    RASSI State    8     Total energy:    -411.97718459188081
::    RASSI State    9     Total energy:    -411.86667870474309
::    RASSI State   10     Total energy:    -411.83742305183000
::    RASSI State   11     Total energy:    -411.82023944157089
::    RASSI State   12     Total energy:    -411.81333365077637
::    RASSI State   13     Total energy:    -411.81181568439973
::    RASSI State   14     Total energy:    -411.81094246360840
::    RASSI State   15     Total energy:    -411.79914012709543
::    RASSI State   16     Total energy:    -411.79247416723058
::    RASSI State   17     Total energy:    -411.79022002376138
::    RASSI State   18     Total energy:    -411.77794857081108
::    RASSI State   19     Total energy:    -411.77418485428154
::    RASSI State   20     Total energy:    -411.77277168770883
::    RASSI State   21     Total energy:    -411.77005600702199
::    RASSI State   22     Total energy:    -411.74709356719120
 
 
 
      ****************************************************************************************************
      *                                                                                                  *
      *                                         Spin-free section                                        *
      *                                                                                                  *
      *                 Note: index according to input order, order according to energy.                 *
      *                                                                                                  *
      ****************************************************************************************************
 
 
 
  SPIN-FREE ENERGIES:
  (Shifted by EMIN (a.u.) =       -412.5327226513)
 
 SF State       Relative EMIN(au)   Rel lowest level(eV)    D:o, cm**(-1)
 
     1             0.0000000000        0.0000000000              0.0000
     2             0.2061772366        5.6103684192          45250.6730
     3             0.3250089615        8.8439443851          71331.2220
     4             0.4252390000       11.5713426758          93329.1728
     5             0.4334505855       11.7947912996          95131.4075
     6             0.4800098421       13.0617332145         105349.9831
     7             0.4959714934       13.4960718731         108853.1607
     8             0.5555380594       15.1169607091         121926.5108
     9             0.6660439466       18.1239790864         146179.7496
    10             0.6952995995       18.9200659577         152600.6233
    11             0.7124832097       19.3876558136         156371.9898
    12             0.7193890005       19.5755719543         157887.6357
    13             0.7209069669       19.6168779236         158220.7908
    14             0.7217801877       19.6406394719         158412.4406
    15             0.7335825242       19.9617974093         161002.7541
    16             0.7402484841       20.1431874179         162465.7632
    17             0.7425026275       20.2045257865         162960.4905
    18             0.7547740805       20.5384490325         165653.7631
    19             0.7585377970       20.6408649767         166479.8034
    20             0.7599509636       20.6793191982         166789.9576
    21             0.7626666443       20.7532166343         167385.9806
    22             0.7856290841       21.3780564537         172425.6536
 
++ Dipole transition strengths (spin-free states):
   -----------------------------------------------
     for osc. strength at least  1.00000000E-05
 
  ( Max oscillator strength is only   0.000000000000000E+000 )
--
 
++ Velocity transition strengths (spin-free states):
   -------------------------------------------------
     for osc. strength at least  1.00000000E-05
 
  ( Max oscillator strength is only   0.000000000000000E+000 )
--
 
++ Length and velocity gauge comparison (spin-free states):
   --------------------------------------------------------
 
 --------------------------------------------------
 A comparison between the dipole oscillator strengths in 
 length and velocity gauge will be performed
 
     All dipole oscillator differences above the tolerance of   1.00000000E-01  will be printed 
 
 Due to basis set deficiency these oscillator may be problematic 
 
 The tolerance is defined as ABS(1-O_l/O_v) 
 O_l : dipole oscillator strength in length gauge
 O_p : dipole oscillator strength in velocity gauge
 --------------------------------------------------
 
 No problematic oscillator strengths above the tolerance 
  0.100000000000000       have been found
 
--
 
 Electric-dipole - electric-octupole not included
 Electric-dipole - magnetic-quadrupole not included
 
++ Dyson amplitudes Biorth. corrected(spin-free states):
   -----------------------------------------------
     for Dyson intensities at least  1.00000000E-05

        From      To        BE (eV)           Dyson intensity    
     -----------------------------------------------------------------------------------------------
           1       3          8.844           9.90263E-01
           1       4         11.571           9.93776E-01
           1       5         11.795           9.94228E-01
           1       6         13.062           9.93593E-01
           1       7         13.496           9.85086E-01
           1       8         15.117           9.91220E-01
           1       9         18.124           1.77323E-04
           1      11         19.388           7.90588E-05
           1      12         19.576           5.95704E-05
           1      14         19.641           8.59967E-05
           1      16         20.143           4.43907E-05
           1      18         20.538           2.19335E-05
           1      19         20.641           1.51498E-05
           1      20         20.679           3.89238E-05
           1      22         21.378           1.98116E-05
           2       3          3.234           4.92357E-01
           2       4          5.961           4.38505E-04
           2       7          7.886           4.68765E-03
           2       8          9.507           1.69711E-03
           2       9         12.514           4.13554E-01
           2      10         13.310           6.86698E-01
           2      11         13.777           8.00188E-02
           2      12         13.965           2.67480E-01
           2      13         14.007           6.03528E-01
           2      14         14.030           2.15581E-01
           2      15         14.351           7.42009E-02
           2      16         14.533           4.15704E-01
           2      17         14.594           3.63611E-01
           2      18         14.928           6.18688E-01
           2      19         15.030           5.49996E-03
           2      20         15.069           1.94565E-02
           2      21         15.143           6.08512E-02
           2      22         15.768           1.64181E-02
--
 
 
 
      ****************************************************************************************************
      *                                                                                                  *
      *                                    Special properties section                                    *
      *                                                                                                  *
      ****************************************************************************************************
 
 
++ I/O STATISTICS
 
  I. General I/O information
  - - - - - - - - - - - - - - - - - - - - - - - - - - - - - - - - - - - - - - - - - - -
  Unit  Name          Flsize      Write/Read            MBytes           Write/Read
                      (MBytes)       Calls              In/Out           Time, sec.
  - - - - - - - - - - - - - - - - - - - - - - - - - - - - - - - - - - - - - - - - - - -
   1  RUNFILE           2.60 .     266/    4740 .      1.9/     34.4 .       0/       0
   2  ANNI              0.00 .       0/       0 .      0.0/      0.0 .       0/       0
   3  ONEINT            6.92 .       0/  123143 .      0.0/  13657.7 .       0/       2
   4  JOB001           19.70 .       0/      45 .      0.0/      2.4 .       0/       0
   5  JOB002           19.70 .       0/     153 .      0.0/      8.5 .       0/       0
  - - - - - - - - - - - - - - - - - - - - - - - - - - - - - - - - - - - - - - - - - - -
   *  TOTAL            48.91 .     266/  128081 .      1.9/  13703.0 .       0/       2
  - - - - - - - - - - - - - - - - - - - - - - - - - - - - - - - - - - - - - - - - - - -
 
  II. I/O Access Patterns
  - - - - - - - - - - - - - - - - - - - -
  Unit  Name               % of random
                         Write/Read calls
  - - - - - - - - - - - - - - - - - - - -
   1  RUNFILE             28.6/  11.3
   2  ANNI                 0.0/   0.0
   3  ONEINT               0.0/  11.3
   4  JOB001               0.0/  77.8
   5  JOB002               0.0/  58.2
  - - - - - - - - - - - - - - - - - - - -
--
--- Stop Module: rassi at Mon Jun 22 02:35:03 2026 /rc=_RC_ALL_IS_WELL_ ---
*** files: Test.DysOrb.SF.1 Test.dys.molden.SF.1 Test.rassi.h5 xmldump
    saved to directory /gpfs/scratch/amehmood/test
--- Module rassi spent 11 seconds ---

.##################.
.# Happy landing! #.
.##################.

    Timing: Wall=443.74 User=417.40 System=23.98
