2
step 1
H -3.617791983000e-01  2.443229100000e-03  1.111243700000e-03  2.306133518884e-03 -1.548496379576e-05 -7.150483373202e-06
H  3.617751983000e-01 -2.415229400000e-03 -1.132243900000e-03 -2.306133518884e-03  1.548488151724e-05  7.150442233942e-06
2
step 2
H -3.518405674000e-01  2.376494700000e-03  1.080427800000e-03  2.198595968223e-03 -1.476268180520e-05 -6.816953678028e-06
H  3.518365674000e-01 -2.348495400000e-03 -1.101428100000e-03 -2.198595968223e-03  1.476259952668e-05  6.816912538768e-06
2
step 3
H -3.425398015000e-01  2.314044300000e-03  1.051590100000e-03  2.012335536078e-03 -1.351176489265e-05 -6.239317326174e-06
H  3.425358015000e-01 -2.286045400000e-03 -1.072590600000e-03 -2.012335536078e-03  1.351168261413e-05  6.239280757942e-06
2
step 4
H -3.342310919000e-01  2.258256400000e-03  1.025829000000e-03  1.745122579682e-03 -1.171721094126e-05 -5.410649208845e-06
H  3.342270919000e-01 -2.230257900000e-03 -1.046829700000e-03 -1.745122584253e-03  1.171712866274e-05  5.410608069585e-06
2
step 5
H -3.272686438000e-01  2.211509800000e-03  1.004242800000e-03  1.400012868429e-03 -9.399534728746e-06 -4.340415926907e-06
H  3.272646438000e-01 -2.183511500000e-03 -1.025243700000e-03 -1.400012868429e-03  9.399452450225e-06  4.340374787647e-06
2
step 6
H -3.219799082000e-01  2.176003300000e-03  9.878471000000e-04  9.867181474618e-04 -6.623951124519e-06 -3.058735989824e-06
H  3.219759082000e-01 -2.148005500000e-03 -1.008848100000e-03 -9.867181520329e-04  6.623868845999e-06  3.058694850564e-06
2
step 7
H -3.186341051000e-01  2.153545100000e-03  9.774766000000e-04  5.220743207448e-04 -3.503524528576e-06 -1.617819689763e-06
H  3.186301051000e-01 -2.125547600000e-03 -9.984777000000e-04 -5.220743207448e-04  3.503442250056e-06  1.617778550502e-06
2
step 8
H -3.174113585000e-01  2.145344800000e-03  9.736899000000e-04  2.909780327959e-05 -1.928151413237e-07 -8.903907206498e-08
H  3.174073585000e-01 -2.117347700000e-03 -9.946913000000e-04 -2.909780327959e-05  1.927328628034e-07  8.899793280482e-08
2
step 9
H -3.183794771000e-01  2.151857800000e-03  9.766974000000e-04 -4.654826105213e-04  3.128681874148e-06  1.444723967140e-06
H  3.183754770000e-01 -2.123861100000e-03 -9.976989000000e-04  4.654826059503e-04 -3.128764152668e-06 -1.444765106401e-06
2
step 10
H -3.214846875000e-01  2.172723200000e-03  9.863324000000e-04 -9.347217931605e-04  6.280017767555e-06  2.899915590476e-06
H  3.214806874000e-01 -2.144726700000e-03 -1.007334000000e-03  9.347217931605e-04 -6.280100046075e-06 -2.899952158708e-06
2
step 11
H -3.265590079000e-01  2.206812800000e-03  1.002073900000e-03 -1.355014270283e-03  9.102664685400e-06  4.203330770009e-06
H  3.265550078000e-01 -2.178816700000e-03 -1.023075700000e-03  1.355014270283e-03 -9.102746963920e-06 -4.203367338240e-06
2
step 12
H -3.333420990000e-01  2.252378500000e-03  1.023114700000e-03 -1.708722831987e-03  1.147817355563e-05  5.300268002817e-06
H  3.333380989000e-01 -2.224382700000e-03 -1.044116700000e-03  1.708722831987e-03 -1.147825583415e-05 -5.300304571048e-06
2
step 13
H -3.415116399000e-01  2.307255600000e-03  1.048455300000e-03 -1.985305981676e-03  1.333573914050e-05  6.158035290163e-06
H  3.415076398000e-01 -2.279260200000e-03 -1.069457500000e-03  1.985305977105e-03 -1.333582141902e-05 -6.158071858394e-06
2
step 14
H -3.507150452000e-01  2.369076400000e-03  1.077002200000e-03 -2.180989676761e-03  1.465000594266e-05  6.764926227017e-06
H  3.507110451000e-01 -2.341081400000e-03 -1.098004600000e-03  2.180989672190e-03 -1.465008822118e-05 -6.764962795249e-06
2
step 15
H -3.605969681000e-01  2.435454400000e-03  1.107653600000e-03 -2.297471995057e-03  1.543240610540e-05  7.126211209710e-06
H  3.605929681000e-01 -2.407459700000e-03 -1.128656100000e-03  2.297471995057e-03 -1.543248838392e-05 -7.126252348970e-06
2
step 16
H -3.708196829000e-01  2.504121700000e-03  1.139362000000e-03 -2.340247998962e-03  1.571983697405e-05  7.258940176061e-06
H  3.708156828000e-01 -2.476127400000e-03 -1.160364700000e-03  2.340247998962e-03 -1.571991925257e-05 -7.258981315321e-06
2
step 17
H -3.810759285000e-01  2.573015000000e-03  1.171174900000e-03 -2.317018436882e-03  1.556400145658e-05  7.186983039019e-06
H  3.810719284000e-01 -2.545021100000e-03 -1.192177700000e-03  2.317018436882e-03 -1.556408373510e-05 -7.187019607250e-06
2
step 18
H -3.910953668000e-01  2.640318600000e-03  1.202253600000e-03 -2.236438346354e-03  1.502298818832e-05  6.937158025176e-06
H  3.910913667000e-01 -2.612325100000e-03 -1.223256600000e-03  2.236438346354e-03 -1.502307046684e-05 -6.937199164436e-06
2
step 19
H -4.006464751000e-01  2.704477600000e-03  1.231880300000e-03 -2.107295626442e-03  1.415580001040e-05  6.536717608872e-06
H  4.006424750000e-01 -2.676484400000e-03 -1.252883500000e-03  2.107295626442e-03 -1.415588228892e-05 -6.536754177104e-06
2
step 20
H -4.095358157000e-01  2.764192700000e-03  1.259454900000e-03 -1.938101564966e-03  1.301961135237e-05  6.012059482041e-06
H  4.095318156000e-01 -2.736199900000e-03 -1.280458300000e-03  1.938101564966e-03 -1.301969363089e-05 -6.012096050272e-06
2
step 21
H -4.176063465000e-01  2.818409200000e-03  1.284490400000e-03 -1.736897291998e-03  1.166841063666e-05  5.388114036337e-06
H  4.176023464000e-01 -2.790416700000e-03 -1.305493900000e-03  1.736897291998e-03 -1.166849291518e-05 -5.388155175597e-06
2
step 22
H -4.247349959000e-01  2.866300200000e-03  1.306605100000e-03 -1.510726008863e-03  1.014948515728e-05  4.686721647874e-06
H  4.247309957000e-01 -2.838308100000e-03 -1.327608700000e-03  1.510726004292e-03 -1.014956743580e-05 -4.686762787134e-06
2
step 23
H -4.308263549000e-01  2.907224900000e-03  1.325502800000e-03 -1.264728806624e-03  8.497350753518e-06  3.923821494449e-06
H  4.308223547000e-01 -2.879233100000e-03 -1.346506700000e-03  1.264728802053e-03 -8.497433032038e-06 -3.923858062680e-06
2
step 24
H -4.358023405000e-01  2.940658600000e-03  1.340941500000e-03 -1.002388987577e-03  6.735401951312e-06  3.110205775309e-06
H  4.357983404000e-01 -2.912667100000e-03 -1.361945500000e-03  1.002388987577e-03 -6.735484229832e-06 -3.110242343540e-06
2
step 25
H -4.395980254000e-01  2.966164800000e-03  1.352719500000e-03 -7.269933043478e-04  4.885712249250e-06  2.256072455943e-06
H  4.395940253000e-01 -2.938173800000e-03 -1.373723700000e-03  7.269933043478e-04 -4.885794527771e-06 -2.256113595203e-06
2
step 26
H -4.421640881000e-01  2.983412300000e-03  1.360683900000e-03 -4.422607506250e-04  2.973271462364e-06  1.372967955370e-06
H  4.421600879000e-01 -2.955421600000e-03 -1.381688200000e-03  4.422607506250e-04 -2.973353740884e-06 -1.373004523601e-06
2
step 27
H -4.434681453000e-01  2.992183200000e-03  1.364734000000e-03 -1.519979055828e-04  1.023659068412e-06  4.726946702249e-07
H  4.434641452000e-01 -2.964192900000e-03 -1.385738500000e-03  1.519979055828e-04 -1.023741346932e-06 -4.727312384562e-07
2
step 28
H -4.434941861000e-01  2.992370000000e-03  1.364820300000e-03  1.401309157374e-04 -9.385007998881e-07 -4.333701085444e-07
H  4.434901859000e-01 -2.964380100000e-03 -1.385825000000e-03 -1.401309157374e-04  9.384185213678e-07  4.333335403132e-07
2
step 29
H -4.422418926000e-01  2.983970600000e-03  1.360941700000e-03  4.305406690776e-04 -2.889118820200e-06 -1.334105067609e-06
H  4.422378924000e-01 -2.955981000000e-03 -1.381946500000e-03 -4.305406690776e-04  2.889036541679e-06  1.334068499378e-06
2
step 30
H -4.397266258000e-01  2.967088100000e-03  1.353145800000e-03  7.155722869376e-04 -4.803598285978e-06 -2.218155771166e-06
H  4.397226257000e-01 -2.939098800000e-03 -1.374150800000e-03 -7.155722869376e-04  4.803516007458e-06  2.218119202935e-06
2
step 31
H -4.359800876000e-01  2.941935400000e-03  1.341531100000e-03  9.914225087103e-04 -6.656387145638e-06 -3.073719822579e-06
H  4.359760875000e-01 -2.913946500000e-03 -1.362536300000e-03 -9.914225132813e-04  6.656304867118e-06  3.073683254348e-06
2
step 32
H -4.310509204000e-01  2.908839600000e-03  1.326248400000e-03  1.254360264048e-03 -8.422413305628e-06 -3.889218805629e-06
H  4.310469202000e-01 -2.880851000000e-03 -1.347253800000e-03 -1.254360264048e-03  8.422331027108e-06  3.889182237397e-06
2
step 33
H -4.250034757000e-01  2.868232900000e-03  1.307497500000e-03  1.501083400530e-03 -1.007949356267e-05 -4.654409044536e-06
H  4.249994755000e-01 -2.840244700000e-03 -1.328503000000e-03 -1.501083400530e-03  1.007941128415e-05  4.654367905276e-06
2
step 34
H -4.179152922000e-01  2.820636300000e-03  1.285518800000e-03  1.728146093725e-03 -1.160448479740e-05 -5.358598902689e-06
H  4.179112920000e-01 -2.792648500000e-03 -1.306524500000e-03 -1.728146093725e-03  1.160440251888e-05  5.358562334458e-06
2
step 35
H -4.098808753000e-01  2.766684700000e-03  1.260605600000e-03  1.930492392555e-03 -1.296343797814e-05 -5.986123464027e-06
H  4.098768751000e-01 -2.738697300000e-03 -1.281611400000e-03 -1.930492392555e-03  1.296335569962e-05  5.986086895796e-06
2
step 36
H -4.010220069000e-01  2.707196300000e-03  1.233135600000e-03  2.101140411477e-03 -1.410947263243e-05 -6.515329764620e-06
H  4.010180067000e-01 -2.679209200000e-03 -1.254141600000e-03 -2.101140411477e-03  1.410939492494e-05  6.515288625360e-06
2
step 37
H -3.914942892000e-01  2.643216000000e-03  1.203591500000e-03  2.232074865015e-03 -1.498876032387e-05 -6.921355978247e-06
H  3.914902890000e-01 -2.615229300000e-03 -1.224597700000e-03 -2.232074865015e-03  1.498868261638e-05  6.921319410016e-06
2
step 38
H -3.814896442000e-01  2.576033100000e-03  1.172568500000e-03  2.314799792011e-03 -1.554423175656e-05 -7.177854694293e-06
H  3.814856440000e-01 -2.548046700000e-03 -1.193574800000e-03 -2.314799792011e-03  1.554414947804e-05  7.177818126062e-06
2
step 39
H -3.712380201000e-01  2.507192100000e-03  1.140779800000e-03  2.340532993473e-03 -1.571689780246e-05 -7.257587151505e-06
H  3.712340199000e-01 -2.479206100000e-03 -1.161786300000e-03 -2.340532993473e-03  1.571681552394e-05  7.257546012245e-06
2
step 40
H -3.610081899000e-01  2.438498300000e-03  1.109059000000e-03  2.300600987761e-03 -1.544853269538e-05 -7.133661986827e-06
H  3.610041896000e-01 -2.410512600000e-03 -1.130065700000e-03 -2.300600987761e-03  1.544845041686e-05  7.133625418596e-06
2
step 41
H -3.511060014000e-01  2.372005700000e-03  1.078354800000e-03  2.187242620324e-03 -1.468701756371e-05 -6.782017304098e-06
H  3.511020011000e-01 -2.344020300000e-03 -1.099361600000e-03 -2.187242620324e-03  1.468693528519e-05  6.781980735867e-06
2
step 42
H -3.418681436000e-01  2.309975600000e-03  1.049711200000e-03  1.994843849453e-03 -1.339462770590e-05 -6.185228341126e-06
H  3.418641434000e-01 -2.281990700000e-03 -1.070718200000e-03 -1.994843854024e-03  1.339454542738e-05  6.185191772895e-06
2
step 43
H -3.336495915000e-01  2.254792400000e-03  1.024229300000e-03  1.721518787466e-03 -1.155866480364e-05 -5.337439609882e-06
H  3.336455913000e-01 -2.226807800000e-03 -1.045236500000e-03 -1.721518792037e-03  1.155858252512e-05  5.337398470622e-06
2
step 44
H -3.268035371000e-01  2.208828500000e-03  1.003004500000e-03  1.370789165300e-03 -9.202770218447e-06 -4.249557585338e-06
H  3.267995369000e-01 -2.180844200000e-03 -1.024011900000e-03 -1.370789165300e-03  9.202687939927e-06  4.249521017106e-06
2
step 45
H -3.216541376000e-01  2.174261100000e-03  9.870424000000e-04  9.529076956584e-04 -6.395806500779e-06 -2.953382915593e-06
H  3.216501374000e-01 -2.146277200000e-03 -1.008049900000e-03 -9.529077002295e-04  6.395724222259e-06  2.953346347362e-06
2
step 46
H -3.184648658000e-01  2.152860300000e-03  9.771601000000e-04  4.852348354974e-04 -3.254371455983e-06 -1.502766892192e-06
H  3.184608655000e-01 -2.124876700000e-03 -9.981678000000e-04 -4.852348354974e-04  3.254289177463e-06  1.502730323961e-06
2
step 47
H -3.174079616000e-01  2.145782900000e-03  9.738920000000e-04 -8.827447605983e-06  6.434637391338e-08  2.971168789067e-08
H  3.174039613000e-01 -2.117799700000e-03 -9.948999000000e-04  8.827447605983e-06 -6.442865243369e-08 -2.974825612192e-08
2
step 48
H -3.185421127000e-01  2.153423400000e-03  9.774201000000e-04 -5.024047902527e-04  3.379841628431e-06  1.560700112550e-06
H  3.185381124000e-01 -2.125440500000e-03 -9.984282000000e-04  5.024047856817e-04 -3.379923906951e-06 -1.560741251810e-06
2
step 49
H -3.218043878000e-01  2.175359100000e-03  9.875494000000e-04 -9.686864531951e-04  6.512029481750e-06  3.007046794952e-06
H  3.218003876000e-01 -2.147376700000e-03 -1.008557500000e-03  9.686864531951e-04 -6.512111760270e-06 -3.007087934212e-06
2
step 50
H -3.270188603000e-01  2.210408600000e-03  1.003734100000e-03 -1.384445726675e-03  9.304882433184e-06  4.296703177477e-06
H  3.270148600000e-01 -2.182426500000e-03 -1.024742500000e-03  1.384445726675e-03 -9.304964711704e-06 -4.296739745708e-06
2
step 51
H -3.339193471000e-01  2.256784000000e-03  1.025148800000e-03 -1.732565606736e-03  1.164341167957e-05  5.376567617320e-06
H  3.339153468000e-01 -2.228802200000e-03 -1.046157300000e-03  1.732565606736e-03 -1.164349395809e-05 -5.376604185551e-06
2
step 52
H -3.421801348000e-01  2.312297400000e-03  1.050783200000e-03 -2.003046976789e-03  1.346043680906e-05  6.215611970266e-06
H  3.421761345000e-01 -2.284316000000e-03 -1.071791900000e-03  2.003046972218e-03 -1.346051908758e-05 -6.215648538497e-06
2
step 53
H -3.514475406000e-01  2.374573100000e-03  1.079540200000e-03 -2.192586020556e-03  1.473375176325e-05  6.803587989506e-06
H  3.514435403000e-01 -2.346592100000e-03 -1.100549000000e-03  2.192586015985e-03 -1.473383404177e-05 -6.803629128767e-06
2
step 54
H -3.613669399000e-01  2.441229000000e-03  1.110319800000e-03 -2.303229845908e-03  1.547712448119e-05  7.146858547280e-06
H  3.613629396000e-01 -2.413248300000e-03 -1.131328800000e-03  2.303229845908e-03 -1.547720675971e-05 -7.146895115511e-06
2
step 55
H -3.716025638000e-01  2.510009800000e-03  1.142080600000e-03 -2.340694044534e-03  1.572895160569e-05  7.263145522655e-06
H  3.715985635000e-01 -2.482029500000e-03 -1.163089800000e-03  2.340694044534e-03 -1.572903388421e-05 -7.263182090886e-06
2
step 56
H -3.818498036000e-01  2.578869400000e-03  1.173877900000e-03 -2.312790765383e-03  1.554167655140e-05  7.176670797806e-06
H  3.818458032000e-01 -2.550889400000e-03 -1.194887200000e-03  2.312790765383e-03 -1.554175882992e-05 -7.176707366037e-06
2
step 57
H -3.918412525000e-01  2.646011400000e-03  1.204882000000e-03 -2.228208492212e-03  1.497363478922e-05  6.914366875050e-06
H  3.918372521000e-01 -2.618031800000e-03 -1.225891500000e-03  2.228208487641e-03 -1.497371706774e-05 -6.914403443281e-06
2
step 58
H -4.013483325000e-01  2.709900100000e-03  1.234383900000e-03 -2.095723810788e-03  1.408376973689e-05  6.503454231522e-06
H  4.013443322000e-01 -2.681920900000e-03 -1.255393500000e-03  2.095723810788e-03 -1.408385201542e-05 -6.503490799753e-06
2
step 59
H -4.101804391000e-01  2.769255100000e-03  1.261792200000e-03 -1.923819019466e-03  1.292906384077e-05  5.970243709607e-06
H  4.101764388000e-01 -2.741276200000e-03 -1.282802000000e-03  1.923819019466e-03 -1.292914611929e-05 -5.970284848867e-06
2
step 60
H -4.181832208000e-01  2.823039300000e-03  1.286628100000e-03 -1.720486379448e-03  1.156319926432e-05  5.339528570093e-06
H  4.181792205000e-01 -2.795060800000e-03 -1.307638100000e-03  1.720486379448e-03 -1.156327697181e-05 -5.339569709353e-06
2
step 61
H -4.252360112000e-01  2.870441900000e-03  1.308517100000e-03 -1.492653202762e-03  1.003269079770e-05  4.632788077809e-06
H  4.252320109000e-01 -2.842463800000e-03 -1.329527300000e-03  1.492653202762e-03 -1.003277307622e-05 -4.632829217070e-06
2
step 62
H -4.312450783000e-01  2.910833000000e-03  1.327168500000e-03 -1.245301755502e-03  8.371002943520e-06  3.865472310461e-06
H  4.312410779000e-01 -2.882855200000e-03 -1.348178900000e-03  1.245301755502e-03 -8.371085222040e-06 -3.865508878692e-06
2
step 63
H -4.361333543000e-01  2.943694600000e-03  1.342343000000e-03 -9.818473733351e-04  6.601068553815e-06  3.048172342022e-06
H  4.361293540000e-01 -2.915717200000e-03 -1.363353500000e-03  9.818473733351e-04 -6.601150832335e-06 -3.048208910253e-06
2
step 64
H -4.398369940000e-01  2.968597400000e-03  1.353842300000e-03 -7.056067034153e-04  4.745180536556e-06  2.191177558561e-06
H  4.398329936000e-01 -2.940620300000e-03 -1.374853000000e-03  7.056066988442e-04 -4.745262815077e-06 -2.191214126792e-06
2
step 65
H -4.423079528000e-01  2.985218500000e-03  1.361517500000e-03 -4.203209180640e-04  2.828474979700e-06  1.306098373500e-06
H  4.423039524000e-01 -2.957241800000e-03 -1.382528300000e-03  4.203209180640e-04 -2.828557258221e-06 -1.306139512761e-06
2
step 66
H -4.435151236000e-01  2.993348800000e-03  1.365271700000e-03 -1.297891731043e-04  8.764993638037e-07  4.047371834756e-07
H  4.435111232000e-01 -2.965372400000e-03 -1.386282700000e-03  1.297891685333e-04 -8.765816423240e-07 -4.047737517069e-07
2
step 67
H -4.434437073000e-01  2.992888600000e-03  1.365059200000e-03  1.623346566523e-04 -1.086195314878e-06 -5.015744308547e-07
H  4.434397069000e-01 -2.964912600000e-03 -1.386070400000e-03 -1.623346566523e-04  1.086113036358e-06  5.015378626234e-07
2
step 68
H -4.420945711000e-01  2.983843700000e-03  1.360882600000e-03  4.524654446694e-04 -3.035501449894e-06 -1.401706014104e-06
H  4.420905707000e-01 -2.955868100000e-03 -1.381893900000e-03 -4.524654446694e-04  3.035419171373e-06  1.401669445872e-06
2
step 69
H -4.394842885000e-01  2.966325600000e-03  1.352793200000e-03  7.369334500942e-04 -4.946758340293e-06 -2.284266562237e-06
H  4.394802881000e-01 -2.938350300000e-03 -1.373804700000e-03 -7.369334546653e-04  4.946676061773e-06  2.284229994006e-06
2
step 70
H -4.356458396000e-01  2.940555800000e-03  1.340893500000e-03  1.011928427788e-03 -6.794349940087e-06 -3.137430823474e-06
H  4.356418392000e-01 -2.912580900000e-03 -1.361905200000e-03 -1.011928427788e-03  6.794267661567e-06  3.137389684214e-06
2
step 71
H -4.306291406000e-01  2.906869800000e-03  1.325338300000e-03  1.273742752209e-03 -8.553354999677e-06 -3.949684376001e-06
H  4.306251402000e-01 -2.878895300000e-03 -1.346350100000e-03 -1.273742752209e-03  8.553272721157e-06  3.949647807769e-06
2
step 72
H -4.244996161000e-01  2.865707400000e-03  1.306330700000e-03  1.519102638743e-03 -1.020177315694e-05 -4.710870393586e-06
H  4.244956157000e-01 -2.837733200000e-03 -1.327342700000e-03 -1.519102643314e-03  1.020169087842e-05  4.710833825355e-06
2
step 73
H -4.173358303000e-01  2.817596500000e-03  1.284114600000e-03  1.744489661307e-03 -1.171596762140e-05 -5.410077830232e-06
H  4.173318299000e-01 -2.789622700000e-03 -1.305126700000e-03 -1.744489665878e-03  1.171588534288e-05  5.410041262000e-06
2
step 74
H -4.092339969000e-01  2.763183700000e-03  1.258988400000e-03  1.944688330770e-03 -1.306090602751e-05 -6.031129814638e-06
H  4.092299965000e-01 -2.735210200000e-03 -1.280000700000e-03 -1.944688330770e-03  1.306082374899e-05  6.031093246407e-06
2
step 75
H -4.003183196000e-01  2.703303600000e-03  1.231337600000e-03  2.112603793183e-03 -1.418893996997e-05 -6.552021413651e-06
H  4.003143192000e-01 -2.675330400000e-03 -1.252350100000e-03 -2.112603793183e-03  1.418885769145e-05  6.551984845419e-06
2
step 76
H -3.907470975000e-01  2.639019700000e-03  1.201653200000e-03  2.240173270079e-03 -1.504589361417e-05 -6.947735386065e-06
H  3.907430970000e-01 -2.611046900000e-03 -1.222665900000e-03 -2.240173274650e-03  1.504581133565e-05  6.947698817834e-06
2
step 77
H -3.807150897000e-01  2.571640500000e-03  1.170539500000e-03  2.318872199371e-03 -1.557448739689e-05 -7.191823758630e-06
H  3.807110892000e-01 -2.543668100000e-03 -1.191552400000e-03 -2.318872199371e-03  1.557440511837e-05  7.191787190399e-06
2
step 78
H -3.704551917000e-01  2.502731000000e-03  1.138719200000e-03  2.339908115537e-03 -1.571564991157e-05 -7.257006630834e-06
H  3.704511912000e-01 -2.474758900000e-03 -1.159732200000e-03 -2.339908120108e-03  1.571556763305e-05  7.256970062602e-06
2
step 79
H -3.602391035000e-01  2.434116500000e-03  1.107035200000e-03  2.294643186392e-03 -1.541137023037e-05 -7.116497773284e-06
H  3.602351030000e-01 -2.406144800000e-03 -1.128048400000e-03 -2.294643190963e-03  1.541128795185e-05  7.116456634024e-06
2
step 80
H -3.503753083000e-01  2.367869700000e-03  1.076444400000e-03  2.175431031349e-03 -1.461027455940e-05 -6.746573545959e-06
H  3.503713078000e-01 -2.339898300000e-03 -1.097457800000e-03 -2.175431031349e-03  1.461019228088e-05  6.746536977727e-06
2
step 81
H -3.412024176000e-01  2.306265500000e-03  1.047997500000e-03  1.976882485037e-03 -1.327613749459e-05 -6.130508554089e-06
H  3.411984172000e-01 -2.278294400000e-03 -1.069011000000e-03 -1.976882485037e-03  1.327605521607e-05  6.130471985858e-06
2
step 82
H -3.330760741000e-01  2.251693400000e-03  1.022797800000e-03  1.697465315709e-03 -1.139861936855e-05 -5.263530643497e-06
H  3.330720736000e-01 -2.223722700000e-03 -1.043811500000e-03 -1.697465315709e-03  1.139853709003e-05  5.263489504237e-06
2
step 83
H -3.263482975000e-01  2.206518800000e-03  1.001937600000e-03  1.341175151155e-03 -9.004556691985e-06 -4.158022731490e-06
H  3.263442970000e-01 -2.178548500000e-03 -1.022951400000e-03 -1.341175151155e-03  9.004474413464e-06  4.157986163259e-06
2
step 84
H -3.213397655000e-01  2.172896600000e-03  9.864119000000e-04  9.188080897085e-04 -6.166477980552e-06 -2.847485888922e-06
H  3.213357650000e-01 -2.144926700000e-03 -1.007425900000e-03 -9.188080942795e-04  6.166395702032e-06  2.847444749661e-06
2
step 85
H -3.183080238000e-01  2.152557400000e-03  9.770199000000e-04  4.482417865339e-04 -3.004496160823e-06 -1.387375838483e-06
H  3.183040233000e-01 -2.124587800000e-03 -9.980341000000e-04 -4.482417865339e-04  3.004413882302e-06  1.387339270251e-06
2
step 86
H -3.174173069000e-01  2.146605000000e-03  9.742713000000e-04 -4.675011586022e-05  3.216541620755e-07  1.485355843088e-07
H  3.174133064000e-01 -2.118635800000e-03 -9.952856000000e-04  4.675011586022e-05 -3.217364405958e-07 -1.485721525401e-07
2
step 87
H -3.187171231000e-01  2.155372200000e-03  9.783197000000e-04 -5.391673953649e-04  3.630553421881e-06  1.676484274746e-06
H  3.187131226000e-01 -2.127403300000e-03 -9.993342000000e-04  5.391673953649e-04 -3.630635700402e-06 -1.676520842977e-06
2
step 88
H -3.221354341000e-01  2.178375100000e-03  9.889418000000e-04 -1.002354567729e-03  6.743094992961e-06  3.113762035798e-06
H  3.221314336000e-01 -2.150406600000e-03 -1.009956500000e-03  1.002354563158e-03 -6.743177271481e-06 -3.113798604029e-06
2
step 89
H -3.274884924000e-01  2.214379400000e-03  1.005567500000e-03 -1.413479846380e-03  9.505847719047e-06  4.389513348389e-06
H  3.274844919000e-01 -2.186411300000e-03 -1.026582300000e-03  1.413479846380e-03 -9.505929997568e-06 -4.389554487650e-06
2
step 90
H -3.345044641000e-01  2.261558600000e-03  1.027353400000e-03 -1.755953518400e-03  1.180731506306e-05  5.452263856008e-06
H  3.345004636000e-01 -2.233590800000e-03 -1.048368400000e-03  1.755953518400e-03 -1.180739734158e-05 -5.452300424239e-06
2
step 91
H -3.428544291000e-01  2.317702500000e-03  1.053278900000e-03 -2.020314879551e-03  1.358390487085e-05  6.272635555871e-06
H  3.428504286000e-01 -2.289735000000e-03 -1.074294100000e-03  2.020314874980e-03 -1.358398714937e-05 -6.272676695131e-06
2
step 92
H -3.521837650000e-01  2.380428100000e-03  1.082243800000e-03 -2.203722221726e-03  1.481650567057e-05  6.841815504249e-06
H  3.521797645000e-01 -2.352461000000e-03 -1.103259100000e-03  2.203722217155e-03 -1.481658794909e-05 -6.841852072481e-06
2
step 93
H -3.621386844000e-01  2.447358200000e-03  1.113150100000e-03 -2.308561704292e-03  1.552116634470e-05  7.167204196941e-06
H  3.621346839000e-01 -2.419391500000e-03 -1.134165600000e-03  2.308561699721e-03 -1.552124862322e-05 -7.167240765173e-06
2
step 94
H -3.723854460000e-01  2.516250200000e-03  1.144962300000e-03 -2.340760201035e-03  1.573770512605e-05  7.267195454266e-06
H  3.723814455000e-01 -2.488283800000e-03 -1.165978000000e-03  2.340760201035e-03 -1.573778740457e-05 -7.267232022497e-06
2
step 95
H -3.826221270000e-01  2.585075200000e-03  1.176743600000e-03 -2.308234167215e-03  1.551929222285e-05  7.166340272478e-06
H  3.826181265000e-01 -2.557109200000e-03 -1.197759400000e-03  2.308234167215e-03 -1.551937450137e-05 -7.166376840709e-06
2
step 96
H -3.925842609000e-01  2.652055900000e-03  1.207673200000e-03 -2.219700938922e-03  1.492446880230e-05  6.891667145501e-06
H  3.925802604000e-01 -2.624090200000e-03 -1.228689300000e-03  2.219700934351e-03 -1.492455108083e-05 -6.891708284761e-06
2
step 97
H -4.020462084000e-01  2.715675700000e-03  1.237050900000e-03 -2.083923681382e-03  1.401211428776e-05  6.470369124298e-06
H  4.020422079000e-01 -2.687710400000e-03 -1.258067100000e-03  2.083923681382e-03 -1.401219656628e-05 -6.470410263558e-06
2
step 98
H -4.108201875000e-01  2.774672600000e-03  1.264293900000e-03 -1.909354898985e-03  1.283903285543e-05  5.928674772733e-06
H  4.108161869000e-01 -2.746707700000e-03 -1.285310300000e-03  1.909354898985e-03 -1.283911513395e-05 -5.928715911993e-06
2
step 99
H -4.187545245000e-01  2.828027100000e-03  1.288931400000e-03 -1.703934775199e-03  1.145857298368e-05  5.291221936611e-06
H  4.187505240000e-01 -2.800062500000e-03 -1.309947900000e-03  1.703934770628e-03 -1.145865526220e-05 -5.291263075871e-06
2
step 100
H -4.257309203000e-01  2.874943900000e-03  1.310596200000e-03 -1.474468525300e-03  9.916458674667e-06  4.579119627421e-06
H  4.257269198000e-01 -2.846979700000e-03 -1.331612900000e-03  1.474468520729e-03 -9.916540953188e-06 -4.579160766681e-06
2
step 101
H -4.316572522000e-01  2.914803700000e-03  1.329002200000e-03 -1.225781848499e-03  8.245103094355e-06  3.807337964831e-06
H  4.316532516000e-01 -2.886839800000e-03 -1.350019100000e-03  1.225781843928e-03 -8.245180801846e-06 -3.807379104091e-06
2
step 102
H -4.364574493000e-01  2.947094800000e-03  1.343913300000e-03 -9.612320466809e-04  6.467059699370e-06  2.986294323718e-06
H  4.364534487000e-01 -2.919131300000e-03 -1.364930300000e-03  9.612320421099e-04 -6.467141977890e-06 -2.986330891949e-06
2
step 103
H -4.400687679000e-01  2.971395400000e-03  1.355134600000e-03 -6.841684498561e-04  4.604854520163e-06  2.126383223815e-06
H  4.400647674000e-01 -2.943432300000e-03 -1.376151800000e-03  6.841684498561e-04 -4.604936798684e-06 -2.126419792046e-06
2
step 104
H -4.424444467000e-01  2.987390900000e-03  1.362520800000e-03 -3.983516572188e-04  2.683769917615e-06  1.239283643978e-06
H  4.424404461000e-01 -2.959428100000e-03 -1.383538200000e-03  3.983516572188e-04 -2.683852196135e-06 -1.239324783238e-06
2
step 105
H -4.435546497000e-01  2.994880500000e-03  1.365979300000e-03 -1.075722264869e-04  7.292985199355e-07  3.367659836396e-07
H  4.435506491000e-01 -2.966918100000e-03 -1.386996800000e-03  1.075722264869e-04 -7.293762274269e-07 -3.368071228997e-07
2
step 106
H -4.433857860000e-01  2.993772800000e-03  1.365467800000e-03  1.845258318088e-04 -1.234063528967e-06 -5.698518896274e-07
H  4.433817854000e-01 -2.965810700000e-03 -1.386485500000e-03 -1.845258318088e-04  1.233981250446e-06  5.698153213962e-07
2
step 107
H -4.419399075000e-01  2.984081500000e-03  1.360992600000e-03  4.743563535081e-04 -3.182194909553e-06 -1.469439520437e-06
H  4.419359069000e-01 -2.956119800000e-03 -1.382010500000e-03 -4.743563535081e-04  3.182112631033e-06  1.469402952205e-06
2
step 108
H -4.392348050000e-01  2.965926100000e-03  1.352609000000e-03  7.582384993000e-04 -5.090338929268e-06 -2.350564765493e-06
H  4.392308044000e-01 -2.937964800000e-03 -1.373627100000e-03 -7.582385038711e-04  5.090256650748e-06  2.350528197262e-06
2
step 109
H -4.353047406000e-01  2.939537100000e-03  1.340423400000e-03  1.032356438248e-03 -6.932838402860e-06 -3.201374946844e-06
H  4.353007399000e-01 -2.911576100000e-03 -1.361441600000e-03 -1.032356438248e-03  6.932756124339e-06  3.201338378613e-06
2
step 110
H -4.302008963000e-01  2.905258500000e-03  1.324594500000e-03  1.293028416836e-03 -8.684932066744e-06 -4.010437921194e-06
H  4.301968957000e-01 -2.877297800000e-03 -1.345612900000e-03 -1.293028416836e-03  8.684849788223e-06  4.010401352962e-06
2
step 111
H -4.239897527000e-01  2.863537300000e-03  1.305328900000e-03  1.537005329432e-03 -1.032477954481e-05 -4.767669998775e-06
H  4.239857521000e-01 -2.835577000000e-03 -1.326347500000e-03 -1.537005329432e-03  1.032469726629e-05  4.767633430544e-06
2
step 112
H -4.167509238000e-01  2.814908800000e-03  1.282873800000e-03  1.760686540000e-03 -1.182817723899e-05 -5.461890442884e-06
H  4.167469232000e-01 -2.786948800000e-03 -1.303892500000e-03 -1.760686540000e-03  1.182809496047e-05  5.461853874653e-06
2
step 113
H -4.085823985000e-01  2.760031700000e-03  1.257533200000e-03  1.958695933453e-03 -1.315900487887e-05 -6.076424140070e-06
H  4.085783978000e-01 -2.732072100000e-03 -1.278552100000e-03 -1.958695938024e-03  1.315892260035e-05  6.076387571839e-06
2
step 114
H -3.996108359000e-01  2.699757400000e-03  1.229700400000e-03  2.123832022878e-03 -1.426885983937e-05 -6.588923330011e-06
H  3.996068352000e-01 -2.671798200000e-03 -1.250719400000e-03 -2.123832022878e-03  1.426877756085e-05  6.588886761780e-06
2
step 115
H -3.899972434000e-01  2.635168200000e-03  1.199875100000e-03  2.247987215443e-03 -1.510325088489e-05 -6.974219927548e-06
H  3.899932428000e-01 -2.607209400000e-03 -1.220894300000e-03 -2.247987215443e-03  1.510316860637e-05  6.974183359317e-06
2
step 116
H -3.799392279000e-01  2.567592400000e-03  1.168670600000e-03  2.322609184630e-03 -1.560468361384e-05 -7.205765396795e-06
H  3.799352273000e-01 -2.539633900000e-03 -1.189690000000e-03 -2.322609184630e-03  1.560460133532e-05  7.205724257534e-06
2
step 117
H -3.696726362000e-01  2.498615300000e-03  1.136819100000e-03  2.338897630174e-03 -1.571399977014e-05 -7.256238697977e-06
H  3.696686355000e-01 -2.470657200000e-03 -1.157838700000e-03 -2.338897630174e-03  1.571391749162e-05  7.256202129746e-06
2
step 118
H -3.594720843000e-01  2.430082900000e-03  1.105173000000e-03  2.288255187208e-03 -1.537343069045e-05 -7.098972448458e-06
H  3.594680836000e-01 -2.402125100000e-03 -1.126192700000e-03 -2.288255187208e-03  1.537334841193e-05  7.098935880226e-06
2
step 119