2
# ORCA AIMD Position Step 2, t=0.40 fs, E_Pot=-1.17286313 Hartree, Unit is Angstrom
 H     -0.3617791983      0.0024432291      0.0011112437
 H      0.3617751983     -0.0024152294     -0.0011322439
2
# ORCA AIMD Position Step 3, t=0.60 fs, E_Pot=-1.17197218 Hartree, Unit is Angstrom
 H     -0.3518405674      0.0023764947      0.0010804278
 H      0.3518365674     -0.0023484954     -0.0011014281
2
# ORCA AIMD Position Step 4, t=0.80 fs, E_Pot=-1.17052336 Hartree, Unit is Angstrom
 H     -0.3425398015      0.0023140443      0.0010515901
 H      0.3425358015     -0.0022860454     -0.0010725906
2
# ORCA AIMD Position Step 5, t=1.00 fs, E_Pot=-1.16866353 Hartree, Unit is Angstrom
 H     -0.3342310919      0.0022582564      0.0010258290
 H      0.3342270919     -0.0022302579     -0.0010468297
2
# ORCA AIMD Position Step 6, t=1.20 fs, E_Pot=-1.16664856 Hartree, Unit is Angstrom
 H     -0.3272686438      0.0022115098      0.0010042428
 H      0.3272646438     -0.0021835115     -0.0010252437
2
# ORCA AIMD Position Step 7, t=1.40 fs, E_Pot=-1.16481414 Hartree, Unit is Angstrom
 H     -0.3219799082      0.0021760033      0.0009878471
 H      0.3219759082     -0.0021480055     -0.0010088481
2
# ORCA AIMD Position Step 8, t=1.60 fs, E_Pot=-1.16350876 Hartree, Unit is Angstrom
 H     -0.3186341051      0.0021535451      0.0009774766
 H      0.3186301051     -0.0021255476     -0.0009984777
2
# ORCA AIMD Position Step 9, t=1.80 fs, E_Pot=-1.16300247 Hartree, Unit is Angstrom
 H     -0.3174113585      0.0021453448      0.0009736899
 H      0.3174073585     -0.0021173477     -0.0009946913
2
# ORCA AIMD Position Step 10, t=2.00 fs, E_Pot=-1.16340464 Hartree, Unit is Angstrom
 H     -0.3183794771      0.0021518578      0.0009766974
 H      0.3183754770     -0.0021238611     -0.0009976989
2
# ORCA AIMD Position Step 11, t=2.20 fs, E_Pot=-1.16462819 Hartree, Unit is Angstrom
 H     -0.3214846875      0.0021727232      0.0009863324
 H      0.3214806874     -0.0021447267     -0.0010073340
2
# ORCA AIMD Position Step 12, t=2.40 fs, E_Pot=-1.16641816 Hartree, Unit is Angstrom
 H     -0.3265590079      0.0022068128      0.0010020739
 H      0.3265550078     -0.0021788167     -0.0010230757
2
# ORCA AIMD Position Step 13, t=2.60 fs, E_Pot=-1.16843035 Hartree, Unit is Angstrom
 H     -0.3333420990      0.0022523785      0.0010231147
 H      0.3333380989     -0.0022243827     -0.0010441167
2
# ORCA AIMD Position Step 14, t=2.80 fs, E_Pot=-1.17032343 Hartree, Unit is Angstrom
 H     -0.3415116399      0.0023072556      0.0010484553
 H      0.3415076398     -0.0022792602     -0.0010694575
2
# ORCA AIMD Position Step 15, t=3.00 fs, E_Pot=-1.17182997 Hartree, Unit is Angstrom
 H     -0.3507150452      0.0023690764      0.0010770022
 H      0.3507110451     -0.0023410814     -0.0010980046
2
# ORCA AIMD Position Step 16, t=3.20 fs, E_Pot=-1.17279006 Hartree, Unit is Angstrom
 H     -0.3605969681      0.0024354544      0.0011076536
 H      0.3605929681     -0.0024074597     -0.0011286561
2
# ORCA AIMD Position Step 17, t=3.40 fs, E_Pot=-1.17315078 Hartree, Unit is Angstrom
 H     -0.3708196829      0.0025041217      0.0011393620
 H      0.3708156828     -0.0024761274     -0.0011603647
2
# ORCA AIMD Position Step 18, t=3.60 fs, E_Pot=-1.17294478 Hartree, Unit is Angstrom
 H     -0.3810759285      0.0025730150      0.0011711749
 H      0.3810719284     -0.0025450211     -0.0011921777
2
# ORCA AIMD Position Step 19, t=3.80 fs, E_Pot=-1.17226172 Hartree, Unit is Angstrom
 H     -0.3910953668      0.0026403186      0.0012022536
 H      0.3910913667     -0.0026123251     -0.0012232566
2
# ORCA AIMD Position Step 20, t=4.00 fs, E_Pot=-1.17122171 Hartree, Unit is Angstrom
 H     -0.4006464751      0.0027044776      0.0012318803
 H      0.4006424750     -0.0026764844     -0.0012528835
2
# ORCA AIMD Position Step 21, t=4.20 fs, E_Pot=-1.16995521 Hartree, Unit is Angstrom
 H     -0.4095358157      0.0027641927      0.0012594549
 H      0.4095318156     -0.0027361999     -0.0012804583
2
# ORCA AIMD Position Step 22, t=4.40 fs, E_Pot=-1.16858886 Hartree, Unit is Angstrom
 H     -0.4176063465      0.0028184092      0.0012844904
 H      0.4176023464     -0.0027904167     -0.0013054939
2
# ORCA AIMD Position Step 23, t=4.60 fs, E_Pot=-1.16723354 Hartree, Unit is Angstrom
 H     -0.4247349959      0.0028663002      0.0013066051
 H      0.4247309957     -0.0028383081     -0.0013276087
2
# ORCA AIMD Position Step 24, t=4.80 fs, E_Pot=-1.16597494 Hartree, Unit is Angstrom
 H     -0.4308263549      0.0029072249      0.0013255028
 H      0.4308223547     -0.0028792331     -0.0013465067
2
# ORCA AIMD Position Step 25, t=5.00 fs, E_Pot=-1.16487852 Hartree, Unit is Angstrom
 H     -0.4358023405      0.0029406586      0.0013409415
 H      0.4357983404     -0.0029126671     -0.0013619455
2
# ORCA AIMD Position Step 26, t=5.20 fs, E_Pot=-1.16400043 Hartree, Unit is Angstrom
 H     -0.4395980254      0.0029661648      0.0013527195
 H      0.4395940253     -0.0029381738     -0.0013737237
2
# ORCA AIMD Position Step 27, t=5.40 fs, E_Pot=-1.16338667 Hartree, Unit is Angstrom
 H     -0.4421640881      0.0029834123      0.0013606839
 H      0.4421600879     -0.0029554216     -0.0013816882
2
# ORCA AIMD Position Step 28, t=5.60 fs, E_Pot=-1.16306872 Hartree, Unit is Angstrom
 H     -0.4434681453      0.0029921832      0.0013647340
 H      0.4434641452     -0.0029641929     -0.0013857385
2
# ORCA AIMD Position Step 29, t=5.80 fs, E_Pot=-1.16306233 Hartree, Unit is Angstrom
 H     -0.4434941861      0.0029923700      0.0013648203
 H      0.4434901859     -0.0029643801     -0.0013858250
2
# ORCA AIMD Position Step 30, t=6.00 fs, E_Pot=-1.16336782 Hartree, Unit is Angstrom
 H     -0.4422418926      0.0029839706      0.0013609417
 H      0.4422378924     -0.0029559810     -0.0013819465
2
# ORCA AIMD Position Step 31, t=6.20 fs, E_Pot=-1.16397005 Hartree, Unit is Angstrom
 H     -0.4397266258      0.0029670881      0.0013531458
 H      0.4397226257     -0.0029390988     -0.0013741508
2
# ORCA AIMD Position Step 32, t=6.40 fs, E_Pot=-1.16483821 Hartree, Unit is Angstrom
 H     -0.4359800876      0.0029419354      0.0013415311
 H      0.4359760875     -0.0029139465     -0.0013625363
2
# ORCA AIMD Position Step 33, t=6.60 fs, E_Pot=-1.16592679 Hartree, Unit is Angstrom
 H     -0.4310509204      0.0029088396      0.0013262484
 H      0.4310469202     -0.0028808510     -0.0013472538
2
# ORCA AIMD Position Step 34, t=6.80 fs, E_Pot=-1.16717998 Hartree, Unit is Angstrom
 H     -0.4250034757      0.0028682329      0.0013074975
 H      0.4249994755     -0.0028402447     -0.0013285030
2
# ORCA AIMD Position Step 35, t=7.00 fs, E_Pot=-1.16853287 Hartree, Unit is Angstrom
 H     -0.4179152922      0.0028206363      0.0012855188
 H      0.4179112920     -0.0027926485     -0.0013065245
2
# ORCA AIMD Position Step 36, t=7.20 fs, E_Pot=-1.16990078 Hartree, Unit is Angstrom
 H     -0.4098808753      0.0027666847      0.0012606056
 H      0.4098768751     -0.0027386973     -0.0012816114
2
# ORCA AIMD Position Step 37, t=7.40 fs, E_Pot=-1.17117375 Hartree, Unit is Angstrom
 H     -0.4010220069      0.0027071963      0.0012331356
 H      0.4010180067     -0.0026792092     -0.0012541416
2
# ORCA AIMD Position Step 38, t=7.60 fs, E_Pot=-1.17222552 Hartree, Unit is Angstrom
 H     -0.3914942892      0.0026432160      0.0012035915
 H      0.3914902890     -0.0026152293     -0.0012245977
2
# ORCA AIMD Position Step 39, t=7.80 fs, E_Pot=-1.17292557 Hartree, Unit is Angstrom
 H     -0.3814896442      0.0025760331      0.0011725685
 H      0.3814856440     -0.0025480467     -0.0011935748
2
# ORCA AIMD Position Step 40, t=8.00 fs, E_Pot=-1.17315300 Hartree, Unit is Angstrom
 H     -0.3712380201      0.0025071921      0.0011407798
 H      0.3712340199     -0.0024792061     -0.0011617863
2
# ORCA AIMD Position Step 41, t=8.20 fs, E_Pot=-1.17281645 Hartree, Unit is Angstrom
 H     -0.3610081899      0.0024384983      0.0011090590
 H      0.3610041896     -0.0024105126     -0.0011300657
2
# ORCA AIMD Position Step 42, t=8.40 fs, E_Pot=-1.17188037 Hartree, Unit is Angstrom
 H     -0.3511060014      0.0023720057      0.0010783548
 H      0.3511020011     -0.0023440203     -0.0010993616
2
# ORCA AIMD Position Step 43, t=8.60 fs, E_Pot=-1.17039369 Hartree, Unit is Angstrom
 H     -0.3418681436      0.0023099756      0.0010497112
 H      0.3418641434     -0.0022819907     -0.0010707182
2
# ORCA AIMD Position Step 44, t=8.80 fs, E_Pot=-1.16851178 Hartree, Unit is Angstrom
 H     -0.3336495915      0.0022547924      0.0010242293
 H      0.3336455913     -0.0022268078     -0.0010452365
2
# ORCA AIMD Position Step 45, t=9.00 fs, E_Pot=-1.16649809 Hartree, Unit is Angstrom
 H     -0.3268035371      0.0022088285      0.0010030045
 H      0.3267995369     -0.0021808442     -0.0010240119
2
# ORCA AIMD Position Step 46, t=9.20 fs, E_Pot=-1.16469210 Hartree, Unit is Angstrom
 H     -0.3216541376      0.0021742611      0.0009870424
 H      0.3216501374     -0.0021462772     -0.0010080499
2
# ORCA AIMD Position Step 47, t=9.40 fs, E_Pot=-1.16343963 Hartree, Unit is Angstrom
 H     -0.3184648658      0.0021528603      0.0009771601
 H      0.3184608655     -0.0021248767     -0.0009981678
2
# ORCA AIMD Position Step 48, t=9.60 fs, E_Pot=-1.16300104 Hartree, Unit is Angstrom
 H     -0.3174079616      0.0021457829      0.0009738920
 H      0.3174039613     -0.0021177997     -0.0009948999
2
# ORCA AIMD Position Step 49, t=9.80 fs, E_Pot=-1.16347123 Hartree, Unit is Angstrom
 H     -0.3185421127      0.0021534234      0.0009774201
 H      0.3185381124     -0.0021254405     -0.0009984282
2
# ORCA AIMD Position Step 50, t=10.00 fs, E_Pot=-1.16474852 Hartree, Unit is Angstrom
 H     -0.3218043878      0.0021753591      0.0009875494
 H      0.3218003876     -0.0021473767     -0.0010085575
2
# ORCA AIMD Position Step 51, t=10.20 fs, E_Pot=-1.16656801 Hartree, Unit is Angstrom
 H     -0.3270188603      0.0022104086      0.0010037341
 H      0.3270148600     -0.0021824265     -0.0010247425
2
# ORCA AIMD Position Step 52, t=10.40 fs, E_Pot=-1.16858254 Hartree, Unit is Angstrom
 H     -0.3339193471      0.0022567840      0.0010251488
 H      0.3339153468     -0.0022288022     -0.0010461573
2
# ORCA AIMD Position Step 53, t=10.60 fs, E_Pot=-1.17045436 Hartree, Unit is Angstrom
 H     -0.3421801348      0.0023122974      0.0010507832
 H      0.3421761345     -0.0022843160     -0.0010717919
2
# ORCA AIMD Position Step 54, t=10.80 fs, E_Pot=-1.17192352 Hartree, Unit is Angstrom
 H     -0.3514475406      0.0023745731      0.0010795402
 H      0.3514435403     -0.0023465921     -0.0011005490
2
# ORCA AIMD Position Step 55, t=11.00 fs, E_Pot=-1.17283862 Hartree, Unit is Angstrom
 H     -0.3613669399      0.0024412290      0.0011103198
 H      0.3613629396     -0.0024132483     -0.0011313288
2
# ORCA AIMD Position Step 56, t=11.20 fs, E_Pot=-1.17315416 Hartree, Unit is Angstrom
 H     -0.3716025638      0.0025100098      0.0011420806
 H      0.3715985635     -0.0024820295     -0.0011630898
2
# ORCA AIMD Position Step 57, t=11.40 fs, E_Pot=-1.17290818 Hartree, Unit is Angstrom
 H     -0.3818498036      0.0025788694      0.0011738779
 H      0.3818458032     -0.0025508894     -0.0011948872
2
# ORCA AIMD Position Step 58, t=11.60 fs, E_Pot=-1.17219351 Hartree, Unit is Angstrom
 H     -0.3918412525      0.0026460114      0.0012048820
 H      0.3918372521     -0.0026180318     -0.0012258915
2
# ORCA AIMD Position Step 59, t=11.80 fs, E_Pot=-1.17113166 Hartree, Unit is Angstrom
 H     -0.4013483325      0.0027099001      0.0012343839
 H      0.4013443322     -0.0026819209     -0.0012553935
2
# ORCA AIMD Position Step 60, t=12.00 fs, E_Pot=-1.16985323 Hartree, Unit is Angstrom
 H     -0.4101804391      0.0027692551      0.0012617922
 H      0.4101764388     -0.0027412762     -0.0012828020
2
# ORCA AIMD Position Step 61, t=12.20 fs, E_Pot=-1.16848410 Hartree, Unit is Angstrom
 H     -0.4181832208      0.0028230393      0.0012866281
 H      0.4181792205     -0.0027950608     -0.0013076381
2
# ORCA AIMD Position Step 62, t=12.40 fs, E_Pot=-1.16713346 Hartree, Unit is Angstrom
 H     -0.4252360112      0.0028704419      0.0013085171
 H      0.4252320109     -0.0028424638     -0.0013295273
2
# ORCA AIMD Position Step 63, t=12.60 fs, E_Pot=-1.16588506 Hartree, Unit is Angstrom
 H     -0.4312450783      0.0029108330      0.0013271685
 H      0.4312410779     -0.0028828552     -0.0013481789
2
# ORCA AIMD Position Step 64, t=12.80 fs, E_Pot=-1.16480338 Hartree, Unit is Angstrom
 H     -0.4361333543      0.0029436946      0.0013423430
 H      0.4361293540     -0.0029157172     -0.0013633535
2
# ORCA AIMD Position Step 65, t=13.00 fs, E_Pot=-1.16394395 Hartree, Unit is Angstrom
 H     -0.4398369940      0.0029685974      0.0013538423
 H      0.4398329936     -0.0029406203     -0.0013748530
2
# ORCA AIMD Position Step 66, t=13.20 fs, E_Pot=-1.16335179 Hartree, Unit is Angstrom
 H     -0.4423079528      0.0029852185      0.0013615175
 H      0.4423039524     -0.0029572418     -0.0013825283
2
# ORCA AIMD Position Step 67, t=13.40 fs, E_Pot=-1.16305719 Hartree, Unit is Angstrom
 H     -0.4435151236      0.0029933488      0.0013652717
 H      0.4435111232     -0.0029653724     -0.0013862827
2
# ORCA AIMD Position Step 68, t=13.60 fs, E_Pot=-1.16307472 Hartree, Unit is Angstrom
 H     -0.4434437073      0.0029928886      0.0013650592
 H      0.4434397069     -0.0029649126     -0.0013860704
2
# ORCA AIMD Position Step 69, t=13.80 fs, E_Pot=-1.16340351 Hartree, Unit is Angstrom
 H     -0.4420945711      0.0029838437      0.0013608826
 H      0.4420905707     -0.0029558681     -0.0013818939
2
# ORCA AIMD Position Step 70, t=14.00 fs, E_Pot=-1.16402726 Hartree, Unit is Angstrom
 H     -0.4394842885      0.0029663256      0.0013527932
 H      0.4394802881     -0.0029383503     -0.0013738047
2
# ORCA AIMD Position Step 71, t=14.20 fs, E_Pot=-1.16491395 Hartree, Unit is Angstrom
 H     -0.4356458396      0.0029405558      0.0013408935
 H      0.4356418392     -0.0029125809     -0.0013619052
2
# ORCA AIMD Position Step 72, t=14.40 fs, E_Pot=-1.16601712 Hartree, Unit is Angstrom
 H     -0.4306291406      0.0029068698      0.0013253383
 H      0.4306251402     -0.0028788953     -0.0013463501
2
# ORCA AIMD Position Step 73, t=14.60 fs, E_Pot=-1.16728034 Hartree, Unit is Angstrom
 H     -0.4244996161      0.0028657074      0.0013063307
 H      0.4244956157     -0.0028377332     -0.0013273427
2
# ORCA AIMD Position Step 74, t=14.80 fs, E_Pot=-1.16863768 Hartree, Unit is Angstrom
 H     -0.4173358303      0.0028175965      0.0012841146
 H      0.4173318299     -0.0027896227     -0.0013051267
2
# ORCA AIMD Position Step 75, t=15.00 fs, E_Pot=-1.17000251 Hartree, Unit is Angstrom
 H     -0.4092339969      0.0027631837      0.0012589884
 H      0.4092299965     -0.0027352102     -0.0012800007
2
# ORCA AIMD Position Step 76, t=15.20 fs, E_Pot=-1.17126321 Hartree, Unit is Angstrom
 H     -0.4003183196      0.0027033036      0.0012313376
 H      0.4003143192     -0.0026753304     -0.0012523501
2
# ORCA AIMD Position Step 77, t=15.40 fs, E_Pot=-1.17229278 Hartree, Unit is Angstrom
 H     -0.3907470975      0.0026390197      0.0012016532
 H      0.3907430970     -0.0026110469     -0.0012226659
2
# ORCA AIMD Position Step 78, t=15.60 fs, E_Pot=-1.17296088 Hartree, Unit is Angstrom
 H     -0.3807150897      0.0025716405      0.0011705395
 H      0.3807110892     -0.0025436681     -0.0011915524
2
# ORCA AIMD Position Step 79, t=15.80 fs, E_Pot=-1.17314807 Hartree, Unit is Angstrom
 H     -0.3704551917      0.0025027310      0.0011387192
 H      0.3704511912     -0.0024747589     -0.0011597322
2
# ORCA AIMD Position Step 80, t=16.00 fs, E_Pot=-1.17276626 Hartree, Unit is Angstrom
 H     -0.3602391035      0.0024341165      0.0011070352
 H      0.3602351030     -0.0024061448     -0.0011280484
2
# ORCA AIMD Position Step 81, t=16.20 fs, E_Pot=-1.17178532 Hartree, Unit is Angstrom
 H     -0.3503753083      0.0023678697      0.0010764444
 H      0.3503713078     -0.0023398983     -0.0010974578
2
# ORCA AIMD Position Step 82, t=16.40 fs, E_Pot=-1.17026168 Hartree, Unit is Angstrom
 H     -0.3412024176      0.0023062655      0.0010479975
 H      0.3411984172     -0.0022782944     -0.0010690110
2
# ORCA AIMD Position Step 83, t=16.60 fs, E_Pot=-1.16835924 Hartree, Unit is Angstrom
 H     -0.3330760741      0.0022516934      0.0010227978
 H      0.3330720736     -0.0022237227     -0.0010438115
2
# ORCA AIMD Position Step 84, t=16.80 fs, E_Pot=-1.16634883 Hartree, Unit is Angstrom
 H     -0.3263482975      0.0022065188      0.0010019376
 H      0.3263442970     -0.0021785485     -0.0010229514
2
# ORCA AIMD Position Step 85, t=17.00 fs, E_Pot=-1.16457330 Hartree, Unit is Angstrom
 H     -0.3213397655      0.0021728966      0.0009864119
 H      0.3213357650     -0.0021449267     -0.0010074259
2
# ORCA AIMD Position Step 86, t=17.20 fs, E_Pot=-1.16337530 Hartree, Unit is Angstrom
 H     -0.3183080238      0.0021525574      0.0009770199
 H      0.3183040233     -0.0021245878     -0.0009980341
2
# ORCA AIMD Position Step 87, t=17.40 fs, E_Pot=-1.16300497 Hartree, Unit is Angstrom
 H     -0.3174173069      0.0021466050      0.0009742713
 H      0.3174133064     -0.0021186358     -0.0009952856
2
# ORCA AIMD Position Step 88, t=17.60 fs, E_Pot=-1.16354257 Hartree, Unit is Angstrom
 H     -0.3187171231      0.0021553722      0.0009783197
 H      0.3187131226     -0.0021274033     -0.0009993342
2
# ORCA AIMD Position Step 89, t=17.80 fs, E_Pot=-1.16487203 Hartree, Unit is Angstrom
 H     -0.3221354341      0.0021783751      0.0009889418
 H      0.3221314336     -0.0021504066     -0.0010099565
2
# ORCA AIMD Position Step 90, t=18.00 fs, E_Pot=-1.16671897 Hartree, Unit is Angstrom
 H     -0.3274884924      0.0022143794      0.0010055675
 H      0.3274844919     -0.0021864113     -0.0010265823
2
# ORCA AIMD Position Step 91, t=18.20 fs, E_Pot=-1.16873386 Hartree, Unit is Angstrom
 H     -0.3345044641      0.0022615586      0.0010273534
 H      0.3345004636     -0.0022335908     -0.0010483684
2
# ORCA AIMD Position Step 92, t=18.40 fs, E_Pot=-1.17058290 Hartree, Unit is Angstrom
 H     -0.3428544291      0.0023177025      0.0010532789
 H      0.3428504286     -0.0022897350     -0.0010742941
2
# ORCA AIMD Position Step 93, t=18.60 fs, E_Pot=-1.17201380 Hartree, Unit is Angstrom
 H     -0.3521837650      0.0023804281      0.0010822438
 H      0.3521797645     -0.0023524610     -0.0011032591
2
# ORCA AIMD Position Step 94, t=18.80 fs, E_Pot=-1.17288366 Hartree, Unit is Angstrom
 H     -0.3621386844      0.0024473582      0.0011131501
 H      0.3621346839     -0.0024193915     -0.0011341656
2
# ORCA AIMD Position Step 95, t=19.00 fs, E_Pot=-1.17315427 Hartree, Unit is Angstrom
 H     -0.3723854460      0.0025162502      0.0011449623
 H      0.3723814455     -0.0024882838     -0.0011659780
2
# ORCA AIMD Position Step 96, t=19.20 fs, E_Pot=-1.17286886 Hartree, Unit is Angstrom
 H     -0.3826221270      0.0025850752      0.0011767436
 H      0.3826181265     -0.0025571092     -0.0011977594
2
# ORCA AIMD Position Step 97, t=19.40 fs, E_Pot=-1.17212328 Hartree, Unit is Angstrom
 H     -0.3925842609      0.0026520559      0.0012076732
 H      0.3925802604     -0.0026240902     -0.0012286893
2
# ORCA AIMD Position Step 98, t=19.60 fs, E_Pot=-1.17104035 Hartree, Unit is Angstrom
 H     -0.4020462084      0.0027156757      0.0012370509
 H      0.4020422079     -0.0026877104     -0.0012580671
2
# ORCA AIMD Position Step 99, t=19.80 fs, E_Pot=-1.16975074 Hartree, Unit is Angstrom
 H     -0.4108201875      0.0027746726      0.0012642939
 H      0.4108161869     -0.0027467077     -0.0012853103
2
# ORCA AIMD Position Step 100, t=20.00 fs, E_Pot=-1.16837947 Hartree, Unit is Angstrom
 H     -0.4187545245      0.0028280271      0.0012889314
 H      0.4187505240     -0.0028000625     -0.0013099479
2
# ORCA AIMD Position Step 101, t=20.20 fs, E_Pot=-1.16703399 Hartree, Unit is Angstrom
 H     -0.4257309203      0.0028749439      0.0013105962
 H      0.4257269198     -0.0028469797     -0.0013316129
2
# ORCA AIMD Position Step 102, t=20.40 fs, E_Pot=-1.16579616 Hartree, Unit is Angstrom
 H     -0.4316572522      0.0029148037      0.0013290022
 H      0.4316532516     -0.0028868398     -0.0013500191
2
# ORCA AIMD Position Step 103, t=20.60 fs, E_Pot=-1.16472954 Hartree, Unit is Angstrom
 H     -0.4364574493      0.0029470948      0.0013439133
 H      0.4364534487     -0.0029191313     -0.0013649303
2
# ORCA AIMD Position Step 104, t=20.80 fs, E_Pot=-1.16388903 Hartree, Unit is Angstrom
 H     -0.4400687679      0.0029713954      0.0013551346
 H      0.4400647674     -0.0029434323     -0.0013761518
2
# ORCA AIMD Position Step 105, t=21.00 fs, E_Pot=-1.16331865 Hartree, Unit is Angstrom
 H     -0.4424444467      0.0029873909      0.0013625208
 H      0.4424404461     -0.0029594281     -0.0013835382
2
# ORCA AIMD Position Step 106, t=21.20 fs, E_Pot=-1.16304749 Hartree, Unit is Angstrom
 H     -0.4435546497      0.0029948805      0.0013659793
 H      0.4435506491     -0.0029669181     -0.0013869968
2
# ORCA AIMD Position Step 107, t=21.40 fs, E_Pot=-1.16308892 Hartree, Unit is Angstrom
 H     -0.4433857860      0.0029937728      0.0013654678
 H      0.4433817854     -0.0029658107     -0.0013864855
2
# ORCA AIMD Position Step 108, t=21.60 fs, E_Pot=-1.16344092 Hartree, Unit is Angstrom
 H     -0.4419399075      0.0029840815      0.0013609926
 H      0.4419359069     -0.0029561198     -0.0013820105
2
# ORCA AIMD Position Step 109, t=21.80 fs, E_Pot=-1.16408600 Hartree, Unit is Angstrom
 H     -0.4392348050      0.0029659261      0.0013526090
 H      0.4392308044     -0.0029379648     -0.0013736271
2
# ORCA AIMD Position Step 110, t=22.00 fs, E_Pot=-1.16499096 Hartree, Unit is Angstrom
 H     -0.4353047406      0.0029395371      0.0013404234
 H      0.4353007399     -0.0029115761     -0.0013614416
2
# ORCA AIMD Position Step 111, t=22.20 fs, E_Pot=-1.16610837 Hartree, Unit is Angstrom
 H     -0.4302008963      0.0029052585      0.0013245945
 H      0.4301968957     -0.0028772978     -0.0013456129
2
# ORCA AIMD Position Step 112, t=22.40 fs, E_Pot=-1.16738125 Hartree, Unit is Angstrom
 H     -0.4239897527      0.0028635373      0.0013053289
 H      0.4239857521     -0.0028355770     -0.0013263475
2
# ORCA AIMD Position Step 113, t=22.60 fs, E_Pot=-1.16874254 Hartree, Unit is Angstrom
 H     -0.4167509238      0.0028149088      0.0012828738
 H      0.4167469232     -0.0027869488     -0.0013038925
2
# ORCA AIMD Position Step 114, t=22.80 fs, E_Pot=-1.17010364 Hartree, Unit is Angstrom
 H     -0.4085823985      0.0027600317      0.0012575332
 H      0.4085783978     -0.0027320721     -0.0012785521
2
# ORCA AIMD Position Step 115, t=23.00 fs, E_Pot=-1.17135133 Hartree, Unit is Angstrom
 H     -0.3996108359      0.0026997574      0.0012297004
 H      0.3996068352     -0.0026717982     -0.0012507194
2
# ORCA AIMD Position Step 116, t=23.20 fs, E_Pot=-1.17235794 Hartree, Unit is Angstrom
 H     -0.3899972434      0.0026351682      0.0011998751
 H      0.3899932428     -0.0026072094     -0.0012208943
2
# ORCA AIMD Position Step 117, t=23.40 fs, E_Pot=-1.17299338 Hartree, Unit is Angstrom
 H     -0.3799392279      0.0025675924      0.0011686706
 H      0.3799352273     -0.0025396339     -0.0011896900
2
# ORCA AIMD Position Step 118, t=23.60 fs, E_Pot=-1.17313982 Hartree, Unit is Angstrom
 H     -0.3696726362      0.0024986153      0.0011368191
 H      0.3696686355     -0.0024706572     -0.0011578387
2
# ORCA AIMD Position Step 119, t=23.80 fs, E_Pot=-1.17271256 Hartree, Unit is Angstrom
 H     -0.3594720843      0.0024300829      0.0011051730
 H      0.3594680836     -0.0024021251     -0.0011261927
2
# ORCA AIMD Position Step 120, t=24.00 fs, E_Pot=-1.17168708 Hartree, Unit is Angstrom
 H     -0.3496486526      0.0023640861      0.0010746977
 H      0.3496446520     -0.0023361286     -0.0010957176
2
# ORCA AIMD Position Step 121, t=24.20 fs, E_Pot=-1.17012744 Hartree, Unit is Angstrom
 H     -0.3405428001      0.0023029133      0.0010464500
 H      0.3405387994     -0.0022749562     -0.0010674701
2
# ORCA AIMD Position Step 122, t=24.40 fs, E_Pot=-1.16820605 Hartree, Unit is Angstrom
 H     -0.3325107164      0.0022489590      0.0010215356
 H      0.3325067158     -0.0022210023     -0.0010425558
2
# ORCA AIMD Position Step 123, t=24.60 fs, E_Pot=-1.16620095 Hartree, Unit is Angstrom
 H     -0.3259030874      0.0022045808      0.0010010432
 H      0.3258990867     -0.0021766245     -0.0010220635
2
# ORCA AIMD Position Step 124, t=24.80 fs, E_Pot=-1.16445791 Hartree, Unit is Angstrom
 H     -0.3210369240      0.0021719099      0.0009859568
 H      0.3210329233     -0.0021439539     -0.0010069773
2
# ORCA AIMD Position Step 125, t=25.00 fs, E_Pot=-1.16331586 Hartree, Unit is Angstrom
 H     -0.3181636669      0.0021526369      0.0009770571
 H      0.3181596662     -0.0021246813     -0.0009980778
2
# ORCA AIMD Position Step 126, t=25.20 fs, E_Pot=-1.16301427 Hartree, Unit is Angstrom
 H     -0.3174394181      0.0021478114      0.0009748289
 H      0.3174354174     -0.0021198561     -0.0009958497
2
# ORCA AIMD Position Step 127, t=25.40 fs, E_Pot=-1.16361858 Hartree, Unit is Angstrom
 H     -0.3189044666      0.0021577046      0.0009793972
 H      0.3189004659     -0.0021297497     -0.0010004183
2
# ORCA AIMD Position Step 128, t=25.60 fs, E_Pot=-1.16499858 Hartree, Unit is Angstrom
 H     -0.3224777264      0.0021817715      0.0009905107
 H      0.3224737257     -0.0021538170     -0.0010115319
2
# ORCA AIMD Position Step 129, t=25.80 fs, E_Pot=-1.16687090 Hartree, Unit is Angstrom
 H     -0.3279677800      0.0022187258      0.0010075750
 H      0.3279637793     -0.0021907716     -0.0010285964
2
# ORCA AIMD Position Step 130, t=26.00 fs, E_Pot=-1.16888418 Hartree, Unit is Angstrom
 H     -0.3350973154      0.0022667031      0.0010297295
 H      0.3350933147     -0.0022387493     -0.0010507510
2
# ORCA AIMD Position Step 131, t=26.20 fs, E_Pot=-1.17070896 Hartree, Unit is Angstrom
 H     -0.3435343910      0.0023234719      0.0010559436
 H      0.3435303902     -0.0022955184     -0.0010769653
2
# ORCA AIMD Position Step 132, t=26.40 fs, E_Pot=-1.17210078 Hartree, Unit is Angstrom
 H     -0.3529235989      0.0023866428      0.0010851141
 H      0.3529195982     -0.0023586897     -0.0011061359
2
# ORCA AIMD Position Step 133, t=26.60 fs, E_Pot=-1.17292519 Hartree, Unit is Angstrom
 H     -0.3629121001      0.0024538436      0.0011161454
 H      0.3629080994     -0.0024258909     -0.0011371674
2
# ORCA AIMD Position Step 134, t=26.80 fs, E_Pot=-1.17315114 Hartree, Unit is Angstrom
 H     -0.3731682481      0.0025228447      0.0011480080
 H      0.3731642474     -0.0024948923     -0.0011690302
2
# ORCA AIMD Position Step 135, t=27.00 fs, E_Pot=-1.17282687 Hartree, Unit is Angstrom
 H     -0.3833928380      0.0025916343      0.0011797730
 H      0.3833888373     -0.0025636823     -0.0012007954
2
# ORCA AIMD Position Step 136, t=27.20 fs, E_Pot=-1.17205111 Hartree, Unit is Angstrom
 H     -0.3933243506      0.0026584541      0.0012106283
 H      0.3933203498     -0.0026305024     -0.0012316509
2
# ORCA AIMD Position Step 137, t=27.40 fs, E_Pot=-1.17094786 Hartree, Unit is Angstrom
 H     -0.4027400786      0.0027218062      0.0012398825
 H      0.4027360779     -0.0026938549     -0.0012609052
2
# ORCA AIMD Position Step 138, t=27.60 fs, E_Pot=-1.16964778 Hartree, Unit is Angstrom
 H     -0.4114550526      0.0027804469      0.0012669610
 H      0.4114510518     -0.0027524960     -0.0012879839
2
# ORCA AIMD Position Step 139, t=27.80 fs, E_Pot=-1.16827501 Hartree, Unit is Angstrom
 H     -0.4193202630      0.0028333741      0.0012914012
 H      0.4193162622     -0.0028054235     -0.0013124243
2
# ORCA AIMD Position Step 140, t=28.00 fs, E_Pot=-1.16693515 Hartree, Unit is Angstrom
 H     -0.4262197364      0.0028798076      0.0013128429
 H      0.4262157356     -0.0028518574     -0.0013338661
2
# ORCA AIMD Position Step 141, t=28.20 fs, E_Pot=-1.16570826 Hartree, Unit is Angstrom
 H     -0.4320628931      0.0029191381      0.0013310045
 H      0.4320588923     -0.0028911882     -0.0013520279
2
# ORCA AIMD Position Step 142, t=28.40 fs, E_Pot=-1.16465702 Hartree, Unit is Angstrom
 H     -0.4367746459      0.0029508604      0.0013456529
 H      0.4367706451     -0.0029229108     -0.0013666765
2
# ORCA AIMD Position Step 143, t=28.60 fs, E_Pot=-1.16383569 Hartree, Unit is Angstrom
 H     -0.4402933722      0.0029745596      0.0013565965
 H      0.4402893714     -0.0029466105     -0.0013776203
2
# ORCA AIMD Position Step 144, t=28.80 fs, E_Pot=-1.16328725 Hartree, Unit is Angstrom
 H     -0.4425735983      0.0029899299      0.0013636941
 H      0.4425695975     -0.0029619811     -0.0013847179
2
# ORCA AIMD Position Step 145, t=29.00 fs, E_Pot=-1.16303960 Hartree, Unit is Angstrom
 H     -0.4435867552      0.0029967788      0.0013668567
 H      0.4435827544     -0.0029688303     -0.0013878807
2
# ORCA AIMD Position Step 146, t=29.20 fs, E_Pot=-1.16310493 Hartree, Unit is Angstrom
 H     -0.4433204556      0.0029950228      0.0013660459
 H      0.4433164548     -0.0029670747     -0.0013870701
2
# ORCA AIMD Position Step 147, t=29.40 fs, E_Pot=-1.16348004 Hartree, Unit is Angstrom
 H     -0.4417779376      0.0029846838      0.0013612716
 H      0.4417739368     -0.0029567360     -0.0013822960
2
# ORCA AIMD Position Step 148, t=29.60 fs, E_Pot=-1.16414626 Hartree, Unit is Angstrom
 H     -0.4389782131      0.0029658894      0.0013525929
 H      0.4389742123     -0.0029379420     -0.0013736175
2
# ORCA AIMD Position Step 149, t=29.80 fs, E_Pot=-1.16506920 Hartree, Unit is Angstrom
 H     -0.4349568304      0.0029388789      0.0013401203
 H      0.4349528295     -0.0029109319     -0.0013611450
2
# ORCA AIMD Position Step 150, t=30.00 fs, E_Pot=-1.16620054 Hartree, Unit is Angstrom