2
# ORCA AIMD Velocity Step 2, t=0.40 fs, E_Pot=-1.17286313 Hartree, Unit is Angstrom/fs
 H      0.0504510815     -0.0003387632     -0.0001564305
 H     -0.0504510815      0.0003387614      0.0001564296
2
# ORCA AIMD Velocity Step 3, t=0.60 fs, E_Pot=-1.17197218 Hartree, Unit is Angstrom/fs
 H      0.0480984919     -0.0003229619     -0.0001491339
 H     -0.0480984919      0.0003229601      0.0001491330
2
# ORCA AIMD Velocity Step 4, t=0.80 fs, E_Pot=-1.17052336 Hartree, Unit is Angstrom/fs
 H      0.0440236887     -0.0002955957     -0.0001364970
 H     -0.0440236887      0.0002955939      0.0001364962
2
# ORCA AIMD Velocity Step 5, t=1.00 fs, E_Pot=-1.16866353 Hartree, Unit is Angstrom/fs
 H      0.0381778942     -0.0002563364     -0.0001183683
 H     -0.0381778943      0.0002563346      0.0001183674
2
# ORCA AIMD Velocity Step 6, t=1.20 fs, E_Pot=-1.16664856 Hartree, Unit is Angstrom/fs
 H      0.0306279592     -0.0002056328     -0.0000949549
 H     -0.0306279592      0.0002056310      0.0000949540
2
# ORCA AIMD Velocity Step 7, t=1.40 fs, E_Pot=-1.16481414 Hartree, Unit is Angstrom/fs
 H      0.0215863467     -0.0001449116     -0.0000669157
 H     -0.0215863468      0.0001449098      0.0000669148
2
# ORCA AIMD Velocity Step 8, t=1.60 fs, E_Pot=-1.16350876 Hartree, Unit is Angstrom/fs
 H      0.0114213743     -0.0000766463     -0.0000353929
 H     -0.0114213743      0.0000766445      0.0000353920
2
# ORCA AIMD Velocity Step 9, t=1.80 fs, E_Pot=-1.16300247 Hartree, Unit is Angstrom/fs
 H      0.0006365701     -0.0000042182     -0.0000019479
 H     -0.0006365701      0.0000042164      0.0000019470
2
# ORCA AIMD Velocity Step 10, t=2.00 fs, E_Pot=-1.16340464 Hartree, Unit is Angstrom/fs
 H     -0.0101833224      0.0000684459      0.0000316061
 H      0.0101833223     -0.0000684477     -0.0000316070
2
# ORCA AIMD Velocity Step 11, t=2.20 fs, E_Pot=-1.16462819 Hartree, Unit is Angstrom/fs
 H     -0.0204488270      0.0001373874      0.0000634412
 H      0.0204488270     -0.0001373892     -0.0000634420
2
# ORCA AIMD Velocity Step 12, t=2.40 fs, E_Pot=-1.16641816 Hartree, Unit is Angstrom/fs
 H     -0.0296435288      0.0001991382      0.0000919559
 H      0.0296435288     -0.0001991400     -0.0000919567
2
# ORCA AIMD Velocity Step 13, t=2.60 fs, E_Pot=-1.16843035 Hartree, Unit is Angstrom/fs
 H     -0.0373815801      0.0002511070      0.0001159535
 H      0.0373815801     -0.0002511088     -0.0001159543
2
# ORCA AIMD Velocity Step 14, t=2.80 fs, E_Pot=-1.17032343 Hartree, Unit is Angstrom/fs
 H     -0.0434323655      0.0002917448      0.0001347188
 H      0.0434323654     -0.0002917466     -0.0001347196
2
# ORCA AIMD Velocity Step 15, t=3.00 fs, E_Pot=-1.17182997 Hartree, Unit is Angstrom/fs
 H     -0.0477133206      0.0003204969      0.0001479957
 H      0.0477133205     -0.0003204987     -0.0001479965
2
# ORCA AIMD Velocity Step 16, t=3.20 fs, E_Pot=-1.17279006 Hartree, Unit is Angstrom/fs
 H     -0.0502615941      0.0003376134      0.0001558995
 H      0.0502615941     -0.0003376152     -0.0001559004
2
# ORCA AIMD Velocity Step 17, t=3.40 fs, E_Pot=-1.17315078 Hartree, Unit is Angstrom/fs
 H     -0.0511974010      0.0003439015      0.0001588032
 H      0.0511974010     -0.0003439033     -0.0001588041
2
# ORCA AIMD Velocity Step 18, t=3.60 fs, E_Pot=-1.17294478 Hartree, Unit is Angstrom/fs
 H     -0.0506892099      0.0003404923      0.0001572290
 H      0.0506892099     -0.0003404941     -0.0001572298
2
# ORCA AIMD Velocity Step 19, t=3.80 fs, E_Pot=-1.17226172 Hartree, Unit is Angstrom/fs
 H     -0.0489263663      0.0003286566      0.0001517636
 H      0.0489263663     -0.0003286584     -0.0001517645
2
# ORCA AIMD Velocity Step 20, t=4.00 fs, E_Pot=-1.17122171 Hartree, Unit is Angstrom/fs
 H     -0.0461011223      0.0003096852      0.0001430032
 H      0.0461011223     -0.0003096870     -0.0001430040
2
# ORCA AIMD Velocity Step 21, t=4.20 fs, E_Pot=-1.16995521 Hartree, Unit is Angstrom/fs
 H     -0.0423996786      0.0002848289      0.0001315253
 H      0.0423996786     -0.0002848307     -0.0001315261
2
# ORCA AIMD Velocity Step 22, t=4.40 fs, E_Pot=-1.16858886 Hartree, Unit is Angstrom/fs
 H     -0.0379979503      0.0002552688      0.0001178753
 H      0.0379979503     -0.0002552706     -0.0001178762
2
# ORCA AIMD Velocity Step 23, t=4.60 fs, E_Pot=-1.16723354 Hartree, Unit is Angstrom/fs
 H     -0.0330500209      0.0002220394      0.0001025310
 H      0.0330500208     -0.0002220412     -0.0001025319
2
# ORCA AIMD Velocity Step 24, t=4.80 fs, E_Pot=-1.16597494 Hartree, Unit is Angstrom/fs
 H     -0.0276683616      0.0001858958      0.0000858411
 H      0.0276683615     -0.0001858976     -0.0000858419
2
# ORCA AIMD Velocity Step 25, t=5.00 fs, E_Pot=-1.16487852 Hartree, Unit is Angstrom/fs
 H     -0.0219291763      0.0001473498      0.0000680417
 H      0.0219291763     -0.0001473516     -0.0000680425
2
# ORCA AIMD Velocity Step 26, t=5.20 fs, E_Pot=-1.16400043 Hartree, Unit is Angstrom/fs
 H     -0.0159043690      0.0001068843      0.0000493559
 H      0.0159043690     -0.0001068861     -0.0000493568
2
# ORCA AIMD Velocity Step 27, t=5.40 fs, E_Pot=-1.16338667 Hartree, Unit is Angstrom/fs
 H     -0.0096752998      0.0000650460      0.0000300363
 H      0.0096752998     -0.0000650478     -0.0000300371
2
# ORCA AIMD Velocity Step 28, t=5.60 fs, E_Pot=-1.16306872 Hartree, Unit is Angstrom/fs
 H     -0.0033252449      0.0000223945      0.0000103411
 H      0.0033252449     -0.0000223963     -0.0000103419
2
# ORCA AIMD Velocity Step 29, t=5.80 fs, E_Pot=-1.16306233 Hartree, Unit is Angstrom/fs
 H      0.0030656318     -0.0000205315     -0.0000094808
 H     -0.0030656318      0.0000205297      0.0000094800
2
# ORCA AIMD Velocity Step 30, t=6.00 fs, E_Pot=-1.16336782 Hartree, Unit is Angstrom/fs
 H      0.0094189006     -0.0000632050     -0.0000291861
 H     -0.0094189006      0.0000632032      0.0000291853
2
# ORCA AIMD Velocity Step 31, t=6.20 fs, E_Pot=-1.16397005 Hartree, Unit is Angstrom/fs
 H      0.0156545124     -0.0001050879     -0.0000485264
 H     -0.0156545124      0.0001050861      0.0000485256
2
# ORCA AIMD Velocity Step 32, t=6.40 fs, E_Pot=-1.16483821 Hartree, Unit is Angstrom/fs
 H      0.0216892636     -0.0001456212     -0.0000672435
 H     -0.0216892637      0.0001456194      0.0000672427
2
# ORCA AIMD Velocity Step 33, t=6.60 fs, E_Pot=-1.16592679 Hartree, Unit is Angstrom/fs
 H      0.0274415299     -0.0001842564     -0.0000850841
 H     -0.0274415299      0.0001842546      0.0000850833
2
# ORCA AIMD Velocity Step 34, t=6.80 fs, E_Pot=-1.16717998 Hartree, Unit is Angstrom/fs
 H      0.0328390704     -0.0002205082     -0.0001018241
 H     -0.0328390704      0.0002205064      0.0001018232
2
# ORCA AIMD Velocity Step 35, t=7.00 fs, E_Pot=-1.16853287 Hartree, Unit is Angstrom/fs
 H      0.0378065011     -0.0002538703     -0.0001172296
 H     -0.0378065011      0.0002538685      0.0001172288
2
# ORCA AIMD Velocity Step 36, t=7.20 fs, E_Pot=-1.16990078 Hartree, Unit is Angstrom/fs
 H      0.0422332134     -0.0002836000     -0.0001309579
 H     -0.0422332134      0.0002835982      0.0001309571
2
# ORCA AIMD Velocity Step 37, t=7.40 fs, E_Pot=-1.17117375 Hartree, Unit is Angstrom/fs
 H      0.0459664652     -0.0003086717     -0.0001425353
 H     -0.0459664652      0.0003086700      0.0001425344
2
# ORCA AIMD Velocity Step 38, t=7.60 fs, E_Pot=-1.17222552 Hartree, Unit is Angstrom/fs
 H      0.0488309068     -0.0003279078     -0.0001514179
 H     -0.0488309068      0.0003279061      0.0001514171
2
# ORCA AIMD Velocity Step 39, t=7.80 fs, E_Pot=-1.17292557 Hartree, Unit is Angstrom/fs
 H      0.0506406728     -0.0003400598     -0.0001570293
 H     -0.0506406728      0.0003400580      0.0001570285
2
# ORCA AIMD Velocity Step 40, t=8.00 fs, E_Pot=-1.17315300 Hartree, Unit is Angstrom/fs
 H      0.0512036358     -0.0003438372     -0.0001587736
 H     -0.0512036358      0.0003438354      0.0001587727
2
# ORCA AIMD Velocity Step 41, t=8.20 fs, E_Pot=-1.17281645 Hartree, Unit is Angstrom/fs
 H      0.0503300468     -0.0003379662     -0.0001560625
 H     -0.0503300468      0.0003379644      0.0001560617
2
# ORCA AIMD Velocity Step 42, t=8.40 fs, E_Pot=-1.17188037 Hartree, Unit is Angstrom/fs
 H      0.0478501157     -0.0003213066     -0.0001483696
 H     -0.0478501157      0.0003213048      0.0001483688
2
# ORCA AIMD Velocity Step 43, t=8.60 fs, E_Pot=-1.17039369 Hartree, Unit is Angstrom/fs
 H      0.0436410246     -0.0002930331     -0.0001353137
 H     -0.0436410247      0.0002930313      0.0001353129
2
# ORCA AIMD Velocity Step 44, t=8.80 fs, E_Pot=-1.16851178 Hartree, Unit is Angstrom/fs
 H      0.0376615161     -0.0002528679     -0.0001167667
 H     -0.0376615162      0.0002528661      0.0001167658
2
# ORCA AIMD Velocity Step 45, t=9.00 fs, E_Pot=-1.16649809 Hartree, Unit is Angstrom/fs
 H      0.0299886348     -0.0002013282     -0.0000929672
 H     -0.0299886348      0.0002013264      0.0000929664
2
# ORCA AIMD Velocity Step 46, t=9.20 fs, E_Pot=-1.16469210 Hartree, Unit is Angstrom/fs
 H      0.0208466784     -0.0001399205     -0.0000646109
 H     -0.0208466785      0.0001399187      0.0000646101
2
# ORCA AIMD Velocity Step 47, t=9.40 fs, E_Pot=-1.16343963 Hartree, Unit is Angstrom/fs
 H      0.0106154401     -0.0000711956     -0.0000328759
 H     -0.0106154401      0.0000711938      0.0000328751
2
# ORCA AIMD Velocity Step 48, t=9.60 fs, E_Pot=-1.16300104 Hartree, Unit is Angstrom/fs
 H     -0.0001931173      0.0000014077      0.0000006500
 H      0.0001931173     -0.0000014095     -0.0000006508
2
# ORCA AIMD Velocity Step 49, t=9.80 fs, E_Pot=-1.16347123 Hartree, Unit is Angstrom/fs
 H     -0.0109910657      0.0000739405      0.0000341433
 H      0.0109910656     -0.0000739423     -0.0000341442
2
# ORCA AIMD Velocity Step 50, t=10.00 fs, E_Pot=-1.16474852 Hartree, Unit is Angstrom/fs
 H     -0.0211918689      0.0001424631      0.0000657849
 H      0.0211918689     -0.0001424649     -0.0000657858
2
# ORCA AIMD Velocity Step 51, t=10.20 fs, E_Pot=-1.16656801 Hartree, Unit is Angstrom/fs
 H     -0.0302873982      0.0002035621      0.0000939986
 H      0.0302873982     -0.0002035639     -0.0000939994
2
# ORCA AIMD Velocity Step 52, t=10.40 fs, E_Pot=-1.16858254 Hartree, Unit is Angstrom/fs
 H     -0.0379031864      0.0002547219      0.0001176227
 H      0.0379031864     -0.0002547237     -0.0001176235
2
# ORCA AIMD Velocity Step 53, t=10.60 fs, E_Pot=-1.17045436 Hartree, Unit is Angstrom/fs
 H     -0.0438204837      0.0002944728      0.0001359784
 H      0.0438204836     -0.0002944746     -0.0001359792
2
# ORCA AIMD Velocity Step 54, t=10.80 fs, E_Pot=-1.17192352 Hartree, Unit is Angstrom/fs
 H     -0.0479670128      0.0003223290      0.0001488415
 H      0.0479670127     -0.0003223308     -0.0001488424
2
# ORCA AIMD Velocity Step 55, t=11.00 fs, E_Pot=-1.17283862 Hartree, Unit is Angstrom/fs
 H     -0.0503875581      0.0003385917      0.0001563512
 H      0.0503875581     -0.0003385935     -0.0001563520
2
# ORCA AIMD Velocity Step 56, t=11.20 fs, E_Pot=-1.17315416 Hartree, Unit is Angstrom/fs
 H     -0.0512071591      0.0003441009      0.0001588952
 H      0.0512071591     -0.0003441027     -0.0001588960
2
# ORCA AIMD Velocity Step 57, t=11.40 fs, E_Pot=-1.17290818 Hartree, Unit is Angstrom/fs
 H     -0.0505967215      0.0003400039      0.0001570034
 H      0.0505967215     -0.0003400057     -0.0001570042
2
# ORCA AIMD Velocity Step 58, t=11.60 fs, E_Pot=-1.17219351 Hartree, Unit is Angstrom/fs
 H     -0.0487463225      0.0003275769      0.0001512650
 H      0.0487463224     -0.0003275787     -0.0001512658
2
# ORCA AIMD Velocity Step 59, t=11.80 fs, E_Pot=-1.17113166 Hartree, Unit is Angstrom/fs
 H     -0.0458479667      0.0003081094      0.0001422755
 H      0.0458479667     -0.0003081112     -0.0001422763
2
# ORCA AIMD Velocity Step 60, t=12.00 fs, E_Pot=-1.16985323 Hartree, Unit is Angstrom/fs
 H     -0.0420872206      0.0002828480      0.0001306105
 H      0.0420872206     -0.0002828498     -0.0001306114
2
# ORCA AIMD Velocity Step 61, t=12.20 fs, E_Pot=-1.16848410 Hartree, Unit is Angstrom/fs
 H     -0.0376389302      0.0002529671      0.0001168124
 H      0.0376389302     -0.0002529688     -0.0001168133
2
# ORCA AIMD Velocity Step 62, t=12.40 fs, E_Pot=-1.16713346 Hartree, Unit is Angstrom/fs
 H     -0.0326546437      0.0002194843      0.0001013511
 H      0.0326546437     -0.0002194861     -0.0001013520
2
# ORCA AIMD Velocity Step 63, t=12.60 fs, E_Pot=-1.16588506 Hartree, Unit is Angstrom/fs
 H     -0.0272433577      0.0001831317      0.0000845646
 H      0.0272433577     -0.0001831335     -0.0000845654
2
# ORCA AIMD Velocity Step 64, t=12.80 fs, E_Pot=-1.16480338 Hartree, Unit is Angstrom/fs
 H     -0.0214797892      0.0001444110      0.0000666846
 H      0.0214797892     -0.0001444128     -0.0000666854
2
# ORCA AIMD Velocity Step 65, t=13.00 fs, E_Pot=-1.16394395 Hartree, Unit is Angstrom/fs
 H     -0.0154364962      0.0001038099      0.0000479362
 H      0.0154364961     -0.0001038117     -0.0000479370
2
# ORCA AIMD Velocity Step 66, t=13.20 fs, E_Pot=-1.16335179 Hartree, Unit is Angstrom/fs
 H     -0.0091953240      0.0000618783      0.0000285734
 H      0.0091953240     -0.0000618801     -0.0000285743
2
# ORCA AIMD Velocity Step 67, t=13.40 fs, E_Pot=-1.16305719 Hartree, Unit is Angstrom/fs
 H     -0.0028393864      0.0000191751      0.0000088544
 H      0.0028393863     -0.0000191769     -0.0000088552
2
# ORCA AIMD Velocity Step 68, t=13.60 fs, E_Pot=-1.16307472 Hartree, Unit is Angstrom/fs
 H      0.0035513811     -0.0000237626     -0.0000109729
 H     -0.0035513811      0.0000237608      0.0000109721
2
# ORCA AIMD Velocity Step 69, t=13.80 fs, E_Pot=-1.16340351 Hartree, Unit is Angstrom/fs
 H      0.0098985470     -0.0000664074     -0.0000306650
 H     -0.0098985470      0.0000664056      0.0000306642
2
# ORCA AIMD Velocity Step 70, t=14.00 fs, E_Pot=-1.16402726 Hartree, Unit is Angstrom/fs
 H      0.0161218287     -0.0001082198     -0.0000499727
 H     -0.0161218288      0.0001082180      0.0000499719
2
# ORCA AIMD Velocity Step 71, t=14.20 fs, E_Pot=-1.16491395 Hartree, Unit is Angstrom/fs
 H      0.0221378698     -0.0001486394     -0.0000686373
 H     -0.0221378698      0.0001486376      0.0000686364
2
# ORCA AIMD Velocity Step 72, t=14.40 fs, E_Pot=-1.16601712 Hartree, Unit is Angstrom/fs
 H      0.0278655589     -0.0001871210     -0.0000864069
 H     -0.0278655589      0.0001871192      0.0000864061
2
# ORCA AIMD Velocity Step 73, t=14.60 fs, E_Pot=-1.16728034 Hartree, Unit is Angstrom/fs
 H      0.0332332757     -0.0002231833     -0.0001030593
 H     -0.0332332758      0.0002231815      0.0001030585
2
# ORCA AIMD Velocity Step 74, t=14.80 fs, E_Pot=-1.16863768 Hartree, Unit is Angstrom/fs
 H      0.0381640479     -0.0002563092     -0.0001183558
 H     -0.0381640480      0.0002563074      0.0001183550
2
# ORCA AIMD Velocity Step 75, t=15.00 fs, E_Pot=-1.17000251 Hartree, Unit is Angstrom/fs
 H      0.0425437767     -0.0002857323     -0.0001319425
 H     -0.0425437767      0.0002857305      0.0001319417
2
# ORCA AIMD Velocity Step 76, t=15.20 fs, E_Pot=-1.17126321 Hartree, Unit is Angstrom/fs
 H      0.0462172486     -0.0003104102     -0.0001433380
 H     -0.0462172486      0.0003104084      0.0001433372
2
# ORCA AIMD Velocity Step 77, t=15.40 fs, E_Pot=-1.17229278 Hartree, Unit is Angstrom/fs
 H      0.0490080749     -0.0003291577     -0.0001519950
 H     -0.0490080750      0.0003291559      0.0001519942
2
# ORCA AIMD Velocity Step 78, t=15.60 fs, E_Pot=-1.17296088 Hartree, Unit is Angstrom/fs
 H      0.0507297645     -0.0003407217     -0.0001573349
 H     -0.0507297645      0.0003407199      0.0001573341
2
# ORCA AIMD Velocity Step 79, t=15.80 fs, E_Pot=-1.17314807 Hartree, Unit is Angstrom/fs
 H      0.0511899654     -0.0003438099     -0.0001587609
 H     -0.0511899655      0.0003438081      0.0001587601
2
# ORCA AIMD Velocity Step 80, t=16.00 fs, E_Pot=-1.17276626 Hartree, Unit is Angstrom/fs
 H      0.0501997085     -0.0003371532     -0.0001556870
 H     -0.0501997086      0.0003371514      0.0001556861
2
# ORCA AIMD Velocity Step 81, t=16.20 fs, E_Pot=-1.17178532 Hartree, Unit is Angstrom/fs
 H      0.0475917146     -0.0003196277     -0.0001475942
 H     -0.0475917146      0.0003196259      0.0001475934
2
# ORCA AIMD Velocity Step 82, t=16.40 fs, E_Pot=-1.17026168 Hartree, Unit is Angstrom/fs
 H      0.0432480854     -0.0002904409     -0.0001341166
 H     -0.0432480854      0.0002904391      0.0001341158
2
# ORCA AIMD Velocity Step 83, t=16.60 fs, E_Pot=-1.16835924 Hartree, Unit is Angstrom/fs
 H      0.0371353004     -0.0002493666     -0.0001151498
 H     -0.0371353004      0.0002493648      0.0001151489
2
# ORCA AIMD Velocity Step 84, t=16.80 fs, E_Pot=-1.16634883 Hartree, Unit is Angstrom/fs
 H      0.0293407716     -0.0001969919     -0.0000909647
 H     -0.0293407716      0.0001969901      0.0000909639
2
# ORCA AIMD Velocity Step 85, t=17.00 fs, E_Pot=-1.16457330 Hartree, Unit is Angstrom/fs
 H      0.0201006843     -0.0001349035     -0.0000622942
 H     -0.0201006844      0.0001349017      0.0000622933
2
# ORCA AIMD Velocity Step 86, t=17.20 fs, E_Pot=-1.16337530 Hartree, Unit is Angstrom/fs
 H      0.0098061464     -0.0000657291     -0.0000303515
 H     -0.0098061464      0.0000657273      0.0000303507
2
# ORCA AIMD Velocity Step 87, t=17.40 fs, E_Pot=-1.16300497 Hartree, Unit is Angstrom/fs
 H     -0.0010227482      0.0000070368      0.0000032495
 H      0.0010227482     -0.0000070386     -0.0000032503
2
# ORCA AIMD Velocity Step 88, t=17.60 fs, E_Pot=-1.16354257 Hartree, Unit is Angstrom/fs
 H     -0.0117953180      0.0000794253      0.0000366763
 H      0.0117953180     -0.0000794271     -0.0000366771
2
# ORCA AIMD Velocity Step 89, t=17.80 fs, E_Pot=-1.16487203 Hartree, Unit is Angstrom/fs
 H     -0.0219284233      0.0001475181      0.0000681195
 H      0.0219284232     -0.0001475199     -0.0000681203
2
# ORCA AIMD Velocity Step 90, t=18.00 fs, E_Pot=-1.16671897 Hartree, Unit is Angstrom/fs
 H     -0.0309225751      0.0002079586      0.0000960290
 H      0.0309225751     -0.0002079604     -0.0000960299
2
# ORCA AIMD Velocity Step 91, t=18.20 fs, E_Pot=-1.16873386 Hartree, Unit is Angstrom/fs
 H     -0.0384148417      0.0002583076      0.0001192787
 H      0.0384148417     -0.0002583094     -0.0001192795
2
# ORCA AIMD Velocity Step 92, t=18.40 fs, E_Pot=-1.17058290 Hartree, Unit is Angstrom/fs
 H     -0.0441982521      0.0002971739      0.0001372259
 H      0.0441982520     -0.0002971757     -0.0001372268
2
# ORCA AIMD Velocity Step 93, t=18.60 fs, E_Pot=-1.17201380 Hartree, Unit is Angstrom/fs
 H     -0.0482106385      0.0003241394      0.0001496778
 H      0.0482106384     -0.0003241412     -0.0001496786
2
# ORCA AIMD Velocity Step 94, t=18.80 fs, E_Pot=-1.17288366 Hartree, Unit is Angstrom/fs
 H     -0.0505042027      0.0003395552      0.0001567963
 H      0.0505042026     -0.0003395570     -0.0001567971
2
# ORCA AIMD Velocity Step 95, t=19.00 fs, E_Pot=-1.17315427 Hartree, Unit is Angstrom/fs
 H     -0.0512086064      0.0003442924      0.0001589838
 H      0.0512086064     -0.0003442942     -0.0001589846
2
# ORCA AIMD Velocity Step 96, t=19.20 fs, E_Pot=-1.17286886 Hartree, Unit is Angstrom/fs
 H     -0.0504970372      0.0003395142      0.0001567774
 H      0.0504970372     -0.0003395160     -0.0001567782
2
# ORCA AIMD Velocity Step 97, t=19.40 fs, E_Pot=-1.17212328 Hartree, Unit is Angstrom/fs
 H     -0.0485602035      0.0003265013      0.0001507684
 H      0.0485602034     -0.0003265031     -0.0001507693
2
# ORCA AIMD Velocity Step 98, t=19.60 fs, E_Pot=-1.17104035 Hartree, Unit is Angstrom/fs
 H     -0.0455898163      0.0003065418      0.0001415517
 H      0.0455898163     -0.0003065436     -0.0001415526
2
# ORCA AIMD Velocity Step 99, t=19.80 fs, E_Pot=-1.16975074 Hartree, Unit is Angstrom/fs
 H     -0.0417707903      0.0002808784      0.0001297011
 H      0.0417707903     -0.0002808802     -0.0001297020
2
# ORCA AIMD Velocity Step 100, t=20.00 fs, E_Pot=-1.16837947 Hartree, Unit is Angstrom/fs
 H     -0.0372768322      0.0002506782      0.0001157556
 H      0.0372768321     -0.0002506800     -0.0001157565
2
# ORCA AIMD Velocity Step 101, t=20.20 fs, E_Pot=-1.16703399 Hartree, Unit is Angstrom/fs
 H     -0.0322568191      0.0002169415      0.0001001770
 H      0.0322568190     -0.0002169433     -0.0001001779
2
# ORCA AIMD Velocity Step 102, t=20.40 fs, E_Pot=-1.16579616 Hartree, Unit is Angstrom/fs
 H     -0.0268163224      0.0001803774      0.0000832928
 H      0.0268163223     -0.0001803791     -0.0000832937
2
# ORCA AIMD Velocity Step 103, t=20.60 fs, E_Pot=-1.16472954 Hartree, Unit is Angstrom/fs
 H     -0.0210287895      0.0001414793      0.0000653309
 H      0.0210287894     -0.0001414811     -0.0000653317
2
# ORCA AIMD Velocity Step 104, t=20.80 fs, E_Pot=-1.16388903 Hartree, Unit is Angstrom/fs
 H     -0.0149674934      0.0001007400      0.0000465187
 H      0.0149674934     -0.0001007418     -0.0000465195
2
# ORCA AIMD Velocity Step 105, t=21.00 fs, E_Pot=-1.16331865 Hartree, Unit is Angstrom/fs
 H     -0.0087147044      0.0000587126      0.0000271117
 H      0.0087147044     -0.0000587144     -0.0000271126
2
# ORCA AIMD Velocity Step 106, t=21.20 fs, E_Pot=-1.16304749 Hartree, Unit is Angstrom/fs
 H     -0.0023533482      0.0000159548      0.0000073674
 H      0.0023533482     -0.0000159565     -0.0000073683
2
# ORCA AIMD Velocity Step 107, t=21.40 fs, E_Pot=-1.16308892 Hartree, Unit is Angstrom/fs
 H      0.0040368555     -0.0000269975     -0.0000124666
 H     -0.0040368555      0.0000269957      0.0000124658
2
# ORCA AIMD Velocity Step 108, t=21.60 fs, E_Pot=-1.16344092 Hartree, Unit is Angstrom/fs
 H      0.0103774525     -0.0000696166     -0.0000321468
 H     -0.0103774525      0.0000696148      0.0000321460
2
# ORCA AIMD Velocity Step 109, t=21.80 fs, E_Pot=-1.16408600 Hartree, Unit is Angstrom/fs
 H      0.0165879174     -0.0001113609     -0.0000514231
 H     -0.0165879175      0.0001113591      0.0000514223
2
# ORCA AIMD Velocity Step 110, t=22.00 fs, E_Pot=-1.16499096 Hartree, Unit is Angstrom/fs
 H      0.0225847716     -0.0001516691     -0.0000700362
 H     -0.0225847716      0.0001516673      0.0000700354
2
# ORCA AIMD Velocity Step 111, t=22.20 fs, E_Pot=-1.16610837 Hartree, Unit is Angstrom/fs
 H      0.0282874697     -0.0001899995     -0.0000877360
 H     -0.0282874697      0.0001899977      0.0000877352
2
# ORCA AIMD Velocity Step 112, t=22.40 fs, E_Pot=-1.16738125 Hartree, Unit is Angstrom/fs
 H      0.0336249313     -0.0002258743     -0.0001043019
 H     -0.0336249313      0.0002258725      0.0001043011
2
# ORCA AIMD Velocity Step 113, t=22.60 fs, E_Pot=-1.16874254 Hartree, Unit is Angstrom/fs
 H      0.0385183856     -0.0002587640     -0.0001194893
 H     -0.0385183856      0.0002587622      0.0001194885
2
# ORCA AIMD Velocity Step 114, t=22.80 fs, E_Pot=-1.17010364 Hartree, Unit is Angstrom/fs
 H      0.0428502198     -0.0002878784     -0.0001329334
 H     -0.0428502199      0.0002878766      0.0001329326
2
# ORCA AIMD Velocity Step 115, t=23.00 fs, E_Pot=-1.17135133 Hartree, Unit is Angstrom/fs
 H      0.0464628876     -0.0003121586     -0.0001441453
 H     -0.0464628876      0.0003121568      0.0001441445
2
# ORCA AIMD Velocity Step 116, t=23.20 fs, E_Pot=-1.17235794 Hartree, Unit is Angstrom/fs
 H      0.0491790199     -0.0003304125     -0.0001525744
 H     -0.0491790199      0.0003304107      0.0001525736
2
# ORCA AIMD Velocity Step 117, t=23.40 fs, E_Pot=-1.17299338 Hartree, Unit is Angstrom/fs
 H      0.0508115182     -0.0003413823     -0.0001576399
 H     -0.0508115182      0.0003413805      0.0001576390
2
# ORCA AIMD Velocity Step 118, t=23.60 fs, E_Pot=-1.17313982 Hartree, Unit is Angstrom/fs
 H      0.0511678591     -0.0003437738     -0.0001587441
 H     -0.0511678591      0.0003437720      0.0001587433
2
# ORCA AIMD Velocity Step 119, t=23.80 fs, E_Pot=-1.17271256 Hartree, Unit is Angstrom/fs
 H      0.0500599588     -0.0003363232     -0.0001553036
 H     -0.0500599588      0.0003363214      0.0001553028
2
# ORCA AIMD Velocity Step 120, t=24.00 fs, E_Pot=-1.17168708 Hartree, Unit is Angstrom/fs
 H      0.0473232105     -0.0003179240     -0.0001468074
 H     -0.0473232105      0.0003179222      0.0001468066
2
# ORCA AIMD Velocity Step 121, t=24.20 fs, E_Pot=-1.17012744 Hartree, Unit is Angstrom/fs
 H      0.0428448405     -0.0002878176     -0.0001329052
 H     -0.0428448405      0.0002878158      0.0001329043
2
# ORCA AIMD Velocity Step 122, t=24.40 fs, E_Pot=-1.16820605 Hartree, Unit is Angstrom/fs
 H      0.0365992818     -0.0002458312     -0.0001135171
 H     -0.0365992818      0.0002458294      0.0001135163
2
# ORCA AIMD Velocity Step 123, t=24.60 fs, E_Pot=-1.16620095 Hartree, Unit is Angstrom/fs
 H      0.0286844811     -0.0001926227     -0.0000889471
 H     -0.0286844812      0.0001926209      0.0000889463
2
# ORCA AIMD Velocity Step 124, t=24.80 fs, E_Pot=-1.16445791 Hartree, Unit is Angstrom/fs
 H      0.0193485513     -0.0001298597     -0.0000599651
 H     -0.0193485513      0.0001298580      0.0000599643
2
# ORCA AIMD Velocity Step 125, t=25.00 fs, E_Pot=-1.16331586 Hartree, Unit is Angstrom/fs
 H      0.0089937646     -0.0000602463     -0.0000278198
 H     -0.0089937647      0.0000602445      0.0000278190
2
# ORCA AIMD Velocity Step 126, t=25.20 fs, E_Pot=-1.16301427 Hartree, Unit is Angstrom/fs
 H     -0.0018519993      0.0000126691      0.0000058503
 H      0.0018519993     -0.0000126709     -0.0000058511
2
# ORCA AIMD Velocity Step 127, t=25.40 fs, E_Pot=-1.16361858 Hartree, Unit is Angstrom/fs
 H     -0.0125957706      0.0000849004      0.0000392044
 H      0.0125957706     -0.0000849021     -0.0000392053
2
# ORCA AIMD Velocity Step 128, t=25.60 fs, E_Pot=-1.16499858 Hartree, Unit is Angstrom/fs
 H     -0.0226582834      0.0001525530      0.0000704444
 H      0.0226582834     -0.0001525548     -0.0000704453
2
# ORCA AIMD Velocity Step 129, t=25.80 fs, E_Pot=-1.16687090 Hartree, Unit is Angstrom/fs
 H     -0.0315489725      0.0002123288      0.0000980471
 H      0.0315489725     -0.0002123306     -0.0000980479
2
# ORCA AIMD Velocity Step 130, t=26.00 fs, E_Pot=-1.16888418 Hartree, Unit is Angstrom/fs
 H     -0.0389165275      0.0002618654      0.0001209216
 H      0.0389165274     -0.0002618671     -0.0001209224
2
# ORCA AIMD Velocity Step 131, t=26.20 fs, E_Pot=-1.17070896 Hartree, Unit is Angstrom/fs
 H     -0.0445657087      0.0002998493      0.0001384614
 H      0.0445657087     -0.0002998511     -0.0001384622
2
# ORCA AIMD Velocity Step 132, t=26.40 fs, E_Pot=-1.17210078 Hartree, Unit is Angstrom/fs
 H     -0.0484442728      0.0003259293      0.0001505044
 H      0.0484442728     -0.0003259311     -0.0001505052
2
# ORCA AIMD Velocity Step 133, t=26.60 fs, E_Pot=-1.17292519 Hartree, Unit is Angstrom/fs
 H     -0.0506116230      0.0003405047      0.0001572348
 H      0.0506116230     -0.0003405065     -0.0001572357
2
# ORCA AIMD Velocity Step 134, t=26.80 fs, E_Pot=-1.17315114 Hartree, Unit is Angstrom/fs
 H     -0.0512018448      0.0003444768      0.0001590690
 H      0.0512018448     -0.0003444785     -0.0001590699
2
# ORCA AIMD Velocity Step 135, t=27.00 fs, E_Pot=-1.17282687 Hartree, Unit is Angstrom/fs
 H     -0.0503902561      0.0003390234      0.0001565509
 H      0.0503902561     -0.0003390252     -0.0001565517
2
# ORCA AIMD Velocity Step 136, t=27.20 fs, E_Pot=-1.17205111 Hartree, Unit is Angstrom/fs
 H     -0.0483681016      0.0003254297      0.0001502737
 H      0.0483681015     -0.0003254315     -0.0001502746
2
# ORCA AIMD Velocity Step 137, t=27.40 fs, E_Pot=-1.17094786 Hartree, Unit is Angstrom/fs
 H     -0.0453267550      0.0003049822      0.0001408317
 H      0.0453267550     -0.0003049840     -0.0001408326
2
# ORCA AIMD Velocity Step 138, t=27.60 fs, E_Pot=-1.16964778 Hartree, Unit is Angstrom/fs
 H     -0.0414504609      0.0002789197      0.0001287969
 H      0.0414504609     -0.0002789215     -0.0001287977
2
# ORCA AIMD Velocity Step 139, t=27.80 fs, E_Pot=-1.16827501 Hartree, Unit is Angstrom/fs
 H     -0.0369117096      0.0002484017      0.0001147046
 H      0.0369117096     -0.0002484035     -0.0001147054
2
# ORCA AIMD Velocity Step 140, t=28.00 fs, E_Pot=-1.16693515 Hartree, Unit is Angstrom/fs
 H     -0.0318565753      0.0002144101      0.0000990082
 H      0.0318565752     -0.0002144119     -0.0000990091
2
# ORCA AIMD Velocity Step 141, t=28.20 fs, E_Pot=-1.16570826 Hartree, Unit is Angstrom/fs
 H     -0.0263872736      0.0001776319      0.0000820252
 H      0.0263872736     -0.0001776337     -0.0000820260
2
# ORCA AIMD Velocity Step 142, t=28.40 fs, E_Pot=-1.16465702 Hartree, Unit is Angstrom/fs
 H     -0.0205761978      0.0001385538      0.0000639800
 H      0.0205761978     -0.0001385556     -0.0000639809
2
# ORCA AIMD Velocity Step 143, t=28.60 fs, E_Pot=-1.16383569 Hartree, Unit is Angstrom/fs
 H     -0.0144973811      0.0000976738      0.0000451029
 H      0.0144973811     -0.0000976756     -0.0000451037
2
# ORCA AIMD Velocity Step 144, t=28.80 fs, E_Pot=-1.16328725 Hartree, Unit is Angstrom/fs
 H     -0.0082334573      0.0000555478      0.0000256503
 H      0.0082334573     -0.0000555496     -0.0000256512
2
# ORCA AIMD Velocity Step 145, t=29.00 fs, E_Pot=-1.16303960 Hartree, Unit is Angstrom/fs
 H     -0.0018671432      0.0000127324      0.0000058795
 H      0.0018671432     -0.0000127342     -0.0000058803
2
# ORCA AIMD Velocity Step 146, t=29.20 fs, E_Pot=-1.16310493 Hartree, Unit is Angstrom/fs
 H      0.0045220440     -0.0000302375     -0.0000139627
 H     -0.0045220440      0.0000302357      0.0000139619
2
# ORCA AIMD Velocity Step 147, t=29.40 fs, E_Pot=-1.16348004 Hartree, Unit is Angstrom/fs
 H      0.0108556063     -0.0000728335     -0.0000336323
 H     -0.0108556063      0.0000728317      0.0000336315
2