   This run of MOLCAS is using the pymolcas driver

                             OPE
                             OPE          NMOL  CASOP  ENMOLC A   SO
                 OPE        NMOLC        AS  OP EN  MO LC     AS  OP
                OPENM       OL CA        SO  PE NM  OL CA     SOP EN
                OP EN      MO   LC       AS  OP ENMOL  CASO   PENMOL
                OP  EN     MO   LC       AS  OP EN     MO     LC ASO
               OP   E  NMOL  C  AS       OP  EN MO     LC     AS  OP
               OP  E   NMO   LC AS        OPEN  MO     LCASOP EN   M
               O  PEN   MO  LCA  SO
            OPE   NMO   L   CAS    OP
        OPENMOL  CASOP     ENMOL   CASOPE
     OPENMOLCA   SOPENMOLCASOPEN   MOLCASOPE
    OPENMOLCAS   OP           EN   MOL    CAS
    OPENMOLCAS       OP  ENM        O     LCA
    OPENMOLCAS    OPEN  MOLCASO     P  E  NMO
    OPENMOLCAS     OP               E  N  MOL
    OPENMOLCA   SO           PENM   O  L  CAS    OPEN    MO    LCAS
    OPENMOLCA   SOP           ENM   O  L  CAS   OP  EN  MOLC  AS   O
    OPENMOLCA   SOPE           NM      O  LCA   S      OP  EN MO
    OPENMOLC                AS         O  PEN   M      OL  CA  SOPE
    OPENMO        LCASOPE  NMOL        C  ASO   P      ENMOLC     AS
    OPE     NMO      LCA  SO     P     E   NM   OL  CA SO  PE N   MO
          OPENMOLCA            SOPE   NMO        LCAS  O    P  ENMO
     OPENMOLCASOPENMOLCASOPENMOLCASOPENMOLCA
        OPENMOLCASOPENMOLCASOPENMOLCASOPE
            OPENMOLCASOPENMOLCASOPENM
               OPENMOLCASOPENMOLCA        version: 26.02
                   OPENMOLCASO
                       OPE                tag: 684-gcd9c692f8

 OpenMolcas is free software; you can redistribute it and/or modify it
 under the terms of the GNU Lesser General Public License version 2.1.
 OpenMolcas is distributed in the hope that it will be useful, but it
 is provided "as is" and without any express or implied warranties.
 For more details see the full text of the license in the file
 LICENSE or in <http://www.gnu.org/licenses/>.

                 Copyright (C) The OpenMolcas Authors
           For the author list and the recommended citation,
                   consult the file CONTRIBUTORS.md

           *************************************************
           * pymolcas version py2.32                       *
           *   build 5fe1e42a8a423461f97be6f8128d9c45      *
           *   (after the EMIL interpreter by V. Veryazov) *
           *************************************************

configuration info
------------------
Host name: cpn-d01-33.core.ccr.buffalo.edu (Linux)
C Compiler ID: Intel
C flags: -std=gnu99 -gcc-sys
Fortran Compiler ID: Intel
Fortran flags: -fpp -i8 -heap-arrays
Definitions: _MOLCAS_;_I8_;_LINUX_;_MOLCAS_MPP_;_SCALAPACK_;_GA_
Parallel: ON (GA=ON)


   ------------------------------------------------------------------------------------------------------------------------------------------------------------------------------------------
  |
  |           Project: 01_Ethylene_Geom_Hess_DFT
  |    Submitted from: /vscratch/grp-cyberwksp21/sbakenhaster/wed_7_8/openmolcas_pyspawn/Tutorials_OpenMolcas/01_Geometry_Hessian_DFT
  |      Scratch area: /vscratch/grp-cyberwksp21/sbakenhaster/wed_7_8/openmolcas_pyspawn/Tutorials_OpenMolcas/01_Geometry_Hessian_DFT/scr_01_Ethylene_Geom_Hess_DFT/01_Ethylene_Geom_Hess_DFT
  |   Save outputs to: /vscratch/grp-cyberwksp21/sbakenhaster/wed_7_8/openmolcas_pyspawn/Tutorials_OpenMolcas/01_Geometry_Hessian_DFT
  |            Molcas: /projects/academic/cyberwksp21/SOFTWARE_2026/OpenMolcas
  |
  | Scratch area is empty
  |
  |    MOLCAS_DRIVER = /projects/academic/cyberwksp21/SOFTWARE_2026/OpenMolcas/pymolcas
  |   MOLCAS_MAXITER = 900
  |    MOLCAS_MOLDEN = YES
  |    MOLCAS_NNODES = 1
  |  MOLCAS_NODELIST = cpn-c01-09
  |    MOLCAS_NPROCS = 1
  |     MOLCAS_PRINT = NORMAL
  |    MOLCAS_SOURCE = /projects/academic/cyberwksp21/SOFTWARE_2026/OpenMolcas
  | MOLCAS_STRUCTURE = 0
  |      MOLCAS_TRAP = YES
  |
   ------------------------------------------------------------------------------------------------------------------------------------------------------------------------------------------

++ ---------   Input file   ---------

&GATEWAY
  Coord
  6
  Ethylene
  C      -1.979720      0.748150      0.000000
  C      -0.655823      0.692790     -0.000000
  H      -2.587863     -0.148840      0.000000
  H      -2.510933      1.692731     -0.000000
  H      -0.124610     -0.251791     -0.000000
  H      -0.047680      1.589780      0.000000
  Basis = 6-31G*
  Group = NoSym

>>> DO WHILE

  &SEWARD

  &SCF
      KSDFT  = B3LYP
      Charge = 0
      Spin   = 1

  &SLAPAF

>>> END DO

&MCKINLEY
  ShowHessian

-- ----------------------------------

--- Start Module: gateway at Wed Jul  8 10:10:14 2026 ---
 
()()()()()()()()()()()()()()()()()()()()()()()()()()()()()()()()()()()()()()()()()()()()()()()()()()

                                              &GATEWAY

                       only a single process is used, running in SERIAL mode
                       available to each process: 2.0 GB of memory, 1 thread?
                                            pid: 454899
()()()()()()()()()()()()()()()()()()()()()()()()()()()()()()()()()()()()()()()()()()()()()()()()()()
 
 
++    Symmetry information:
      ---------------------
 
                    Character Table for C1 
 
                             E  
                    a        1  x, y, xy, Rz, z, xz, Ry, yz, Rx, I
--
 
 
++    Basis set information:
      ----------------------
 
 
      Basis set label: C.6-31G**....
 
      Electronic valence basis set:
      ------------------
      Associated Effective Charge   6.000000 au
      Associated Actual Charge      6.000000 au
      Nuclear Model: Point charge
 
      Shell  nPrim  nBasis  Cartesian Spherical Contaminant
         s      10       3        X                  
         p       4       2        X                  
         d       1       1        X                  
 
 
      Basis set label: H.6-31G....
 
      Electronic valence basis set:
      ------------------
      Associated Effective Charge   1.000000 au
      Associated Actual Charge      1.000000 au
      Nuclear Model: Point charge
 
      Shell  nPrim  nBasis  Cartesian Spherical Contaminant
         s       4       2        X                  
--
 
 
++    Molecular structure info:
      -------------------------
 
                    ************************************************ 
                    **** Cartesian Coordinates / bohr, angstrom **** 
                    ************************************************ 
 
     Center  Label                x              y              z                     x              y              z
        1      C1              -3.741129       1.413799       0.000000             -1.979720       0.748150       0.000000
        2      C2              -1.239326       1.309183       0.000000             -0.655823       0.692790       0.000000
        3      H3              -4.890352      -0.281267       0.000000             -2.587863      -0.148840       0.000000
        4      H4              -4.744976       3.198798       0.000000             -2.510933       1.692731       0.000000
        5      H5              -0.235479      -0.475816       0.000000             -0.124610      -0.251791       0.000000
        6      H6              -0.090102       3.004249       0.000000             -0.047680       1.589780       0.000000
 
                    *************************************** 
                    *    InterNuclear Distances / bohr    * 
                    *************************************** 
 
               1 C1            2 C2            3 H3            4 H4            5 H5            6 H6    
    1 C1       0.000000
    2 C2       2.503989        0.000000
    3 H3       2.047916        3.982402        0.000000
    4 H4       2.047909        3.982490        3.483100        0.000000
    5 H5       3.982490        2.047909        4.658937        5.817074        0.000000
    6 H6       3.982402        2.047916        5.816959        4.658937        3.483100        0.000000
 
                    ******************************************* 
                    *    InterNuclear Distances / angstrom    * 
                    ******************************************* 
 
               1 C1            2 C2            3 H3            4 H4            5 H5            6 H6    
    1 C1       0.000000
    2 C2       1.325054        0.000000
    3 H3       1.083711        2.107396        0.000000
    4 H4       1.083707        2.107443        1.843177        0.000000
    5 H5       2.107443        1.083707        2.465403        3.078263        0.000000
    6 H6       2.107396        1.083711        3.078202        2.465403        1.843177        0.000000
 
                    ************************************** 
                    *    Valence Bond Angles / degree    * 
                    ************************************** 
                          Atom centers                 Phi
                      2 C2       1 C1       3 H3       121.74
                      2 C2       1 C1       4 H4       121.75
                      3 H3       1 C1       4 H4       116.51
                      1 C1       2 C2       5 H5       121.75
                      1 C1       2 C2       6 H6       121.74
                      5 H5       2 C2       6 H6       116.51
 
           ***************************************************************
           *              Valence Dihedral Angles / degree               *
           ***************************************************************
                    Atom centers                       Phi1     Phi2     Theta 
           3 H3       1 C1       2 C2       5 H5        121.74   121.75     0.00
           3 H3       1 C1       2 C2       6 H6        121.74   121.74  -180.00
           4 H4       1 C1       2 C2       5 H5        121.75   121.75  -180.00
           4 H4       1 C1       2 C2       6 H6        121.75   121.74     0.00
--
 
 
            Nuclear Potential Energy             33.47005806 au
 
--- Stop Module: gateway at Wed Jul  8 10:10:15 2026 /rc=_RC_ALL_IS_WELL_ ---
*** files: xmldump
    saved to directory /vscratch/grp-cyberwksp21/sbakenhaster/wed_7_8/openmolcas_pyspawn/Tutorials_OpenMolcas/01_Geometry_Hessian_DFT
--- Module gateway spent 1 second ---

--- Start Module: seward at Wed Jul  8 10:10:15 2026 ---
 
()()()()()()()()()()()()()()()()()()()()()()()()()()()()()()()()()()()()()()()()()()()()()()()()()()

                                              &SEWARD

                       only a single process is used, running in SERIAL mode
                       available to each process: 2.0 GB of memory, 1 thread?
                                            pid: 454902
()()()()()()()()()()()()()()()()()()()()()()()()()()()()()()()()()()()()()()()()()()()()()()()()()()
 
               SEWARD will generate:
                  Multipole Moment integrals up to order  2
                  Kinetic Energy integrals
                  Nuclear Attraction integrals (point charge)
                  One-Electron Hamiltonian integrals
                  Velocity integrals
                  Orbital angular momentum around ( -2.4902   1.3615   0.0000 )
                  Velocity quadrupole around ( -2.4902   1.3615   0.0000 )
                  Two-Electron Repulsion integrals
 
                   Integrals are discarded if absolute value <: 1.00E-14
                   Integral cutoff threshold is set to       <: 1.00E-16
 
            Nuclear Potential Energy             33.47005806 au
 
 
      Basis set specifications :
      Symmetry species         a  
      Basis functions           38
 
 
      Input file to MOLDEN was generated!
 
--- Stop Module: seward at Wed Jul  8 10:10:17 2026 /rc=_RC_ALL_IS_WELL_ ---
*** files: 01_Ethylene_Geom_Hess_DFT.GssOrb 01_Ethylene_Geom_Hess_DFT.guessorb.h5 01_Ethylene_Geom_Hess_DFT.guessorb.molden xmldump
    saved to directory /vscratch/grp-cyberwksp21/sbakenhaster/wed_7_8/openmolcas_pyspawn/Tutorials_OpenMolcas/01_Geometry_Hessian_DFT
--- Module seward spent 1 second ---

*** symbolic link created: INPORB -> 01_Ethylene_Geom_Hess_DFT.GssOrb
--- Start Module: scf at Wed Jul  8 10:10:17 2026 ---
 
()()()()()()()()()()()()()()()()()()()()()()()()()()()()()()()()()()()()()()()()()()()()()()()()()()

                                                &SCF

                       only a single process is used, running in SERIAL mode
                       available to each process: 2.0 GB of memory, 1 thread?
                                            pid: 454911
()()()()()()()()()()()()()()()()()()()()()()()()()()()()()()()()()()()()()()()()()()()()()()()()()()
 
 ###############################################################################
 ###############################################################################
 ###                                                                         ###
 ###                                                                         ###
 ###     Minimized-density-differences option turned off!                    ###
 ###                                                                         ###
 ###                                                                         ###
 ###############################################################################
 ###############################################################################
++    Input section:
      --------------
 
      Header of the integral files:
      
       Integrals generated by Gateway/Seward, Wed Jul  8 10:10:16 2026
 
 
      Cartesian coordinates in angstrom:
      -----------------------------------------------------
      No.  Label        X            Y            Z        
      -----------------------------------------------------
       1   C1        -1.97972000   0.74815000   0.00000000
       2   C2        -0.65582300   0.69279000   0.00000000
       3   H3        -2.58786300  -0.14884000   0.00000000
       4   H4        -2.51093300   1.69273100   0.00000000
       5   H5        -0.12461000  -0.25179100   0.00000000
       6   H6        -0.04768000   1.58978000   0.00000000
      -----------------------------------------------------
      Nuclear repulsion energy =   33.47005806
--
 
++    Orbital specifications:
      -----------------------
 
      Symmetry species               1
                                     a
      Frozen orbitals                0
      Occupied orbitals              8
      Secondary orbitals            30
      Deleted orbitals               0
      Total number of orbitals      38
      Number of basis functions     38
--
 
      Molecular charge                           0.000
 
 
      Numerical integration parameters
      --------------------------------
      Radial quadrature type:                         MHL       
      Size of radial grid:                            75
      Lebedev angular grid:                           29
      Angular grid pruned with the crowding factor:  3.00E+00
                                 and fading factor:  6.00E+00
      Screening threshold for integral computation:   1.00E-11
      Radial quadrature accuracy:                     1.00E-25
      Maximum batch size:                             128
      AO values are stored on disk
      The same grid will be used for all iterations.
 
      DFT functional specifications
      -----------------------------
      Using Libxc version: 7.0.0
      Please cite the following reference:
      S. Lehtola, C. Steigemann, M. J.T. Oliveira, and M. A.L. Marques.,  SoftwareX 7, 1–5 (2018) doi:10.1016/j.softx.2017.11.002
 
      * B3LYP
        - P. J. Stephens, F. J. Devlin, C. F. Chabalowski, and M. J. Frisch.,  J. Phys. Chem. 98, 11623 (1994) doi:10.1021/j100096a001
 
++    Optimization specifications:
      ----------------------------
 
      SCF Algorithm: Conventional
      D(i)-D(i-1) density differences are used
      Number of density matrices in core                 5
      Maximum number of NDDO SCF iterations            400
      Maximum number of HF SCF iterations              400
      Threshold for SCF energy change             1.00E-09
      Threshold for density matrix                1.00E-04
      Threshold for Fock matrix                   1.50E-04
      Threshold for linear dependence             1.00E-09
      Threshold at which DIIS is turned on        1.50E-01
      Maximum depth in the DIIS procedure                5
      Maximum depth in the BFGS Hessian update          30
      Threshold at which QNR/C2DIIS is turned on  7.50E-02
      Threshold for Norm(delta) (QNR/C2DIIS)      1.00E-03
      All orbitals punched on: SCFORB
--
 
      Input vectors read from INPORB
      Orbital file label: *Guess orbitals
 
 
++ Convergence information
                                   B3LYP      iterations: Energy and convergence statistics
 
Iter     Tot. B3LYP      One-elec.       Two-elec.     Energy      Max Dij or  Max Fij      DNorm      TNorm      AccCon     Time
         Energy          Energy          Energy        Change      Delta Norm                                                in Sec.
   1   -78.422835120  -177.771514395    65.878621211   0.00E+00    2.89E-01*   1.24E-01*    4.01E+00   8.85E+01   None         0.
   2   -78.505175321  -182.901029802    70.925796418  -8.23E-02*   1.88E-01*   8.62E-02*    1.29E+00   9.20E+01   EDIIS        0.
   3   -78.565347735  -179.243991522    67.208585723  -6.02E-02*   7.42E-02*   3.86E-02*    7.43E-01   8.95E+01   EDIIS        0.
   4   -78.582359606  -181.094529098    69.042111428  -1.70E-02*   2.51E-03*   1.32E-02*    3.31E-01   9.08E+01   c2DIIS       0.
   5   -78.587374044  -180.501459016    68.444026908  -5.01E-03*   3.33E-04    1.97E-04*    1.37E-02   9.03E+01   QNRc2DIIS    0.
   6   -78.587374209  -180.503308874    68.445876601  -1.65E-07*   1.25E-04    6.81E-05     2.01E-03   9.03E+01   QNRc2DIIS    0.
   7   -78.587374240  -180.501666206    68.444233902  -3.03E-08*   4.42E-05    2.43E-05     5.41E-04   9.03E+01   QNRc2DIIS    0.
   8   -78.587374244  -180.502225850    68.444793543  -4.21E-09*   5.63E-06    3.78E-06     1.99E-04   9.03E+01   QNRc2DIIS    0.
   9   -78.587374244  -180.502185021    68.444752713  -9.93E-11    7.18E-08    5.05E-08     2.66E-05   9.03E+01   QNRc2DIIS    0.
 
       Convergence after   9 Iterations
--
 
 *****************************************************************************************************************************
 *                                                                                                                           *
 *                                             SCF/KS-DFT Program, Final results                                             *
 *                                                                                                                           *
 *                                                                                                                           *
 *                                                                                                                           *
 *                                                       Final Results                                                       *
 *                                                                                                                           *
 *****************************************************************************************************************************
 
::    Total KS-DFT energy                             -78.5873742438
      One-electron energy                            -180.5021850210
      Two-electron energy                              68.4447527134
      Nuclear repulsion energy                         33.4700580638
      Kinetic energy (interpolated)                    77.8085347237
      Virial theorem                                    1.0100096927
      Total spin, S(S+1)                                0.0000000000
      Total spin, S                                     0.0000000000
      Max non-diagonal density matrix element           0.0000000752
      Max non-diagonal Fock matrix element              0.0000000051
 
 
      All orbitals with orbital energies smaller than  E(LUMO)+0.5 are printed
 
++    Molecular orbitals:
      -------------------
 
      Title: RKS-DFT orbitals

      Molecular orbitals for symmetry species 1: a  
 
          Orbital            1         2         3         4         5         6         7         8         9        10    
          Energy          -10.1825  -10.1816   -0.7565   -0.5775   -0.4664   -0.4168   -0.3534   -0.2675    0.0202    0.1230
          Occ. No.          2.0000    2.0000    2.0000    2.0000    2.0000    2.0000    2.0000    2.0000    0.0000    0.0000
 
        1 C1     1s         0.7018   -0.7021   -0.1607    0.1231    0.0000    0.0148    0.0000   -0.0000    0.0000    0.0817
        2 C1     2s         0.0344   -0.0353    0.3101   -0.2473   -0.0000   -0.0324   -0.0000   -0.0000    0.0000   -0.1269
        3 C1     *s        -0.0060    0.0125    0.2316   -0.2295    0.0000   -0.0028   -0.0000    0.0000   -0.0000   -1.3890
        4 C1     2px       -0.0003   -0.0003    0.1009    0.1725    0.0138   -0.4144   -0.0130    0.0000   -0.0000    0.1820
        5 C1     *px        0.0007    0.0021    0.0044    0.0700    0.0050   -0.1410   -0.0049    0.0000   -0.0000    0.5925
        6 C1     2py        0.0000    0.0000   -0.0042   -0.0072    0.3312    0.0174   -0.3097   -0.0000    0.0000   -0.0076
        7 C1     *py       -0.0000   -0.0001   -0.0002   -0.0029    0.1204    0.0059   -0.1159   -0.0000    0.0000   -0.0247
        8 C1     2pz        0.0000    0.0000    0.0000    0.0000   -0.0000    0.0000    0.0000    0.4016   -0.4184   -0.0000
        9 C1     *pz       -0.0000   -0.0000   -0.0000    0.0000    0.0000   -0.0000    0.0000    0.2837   -0.6358   -0.0000
       10 C1     *200      -0.0039    0.0036    0.0046    0.0048   -0.0002   -0.0031    0.0013    0.0000   -0.0000   -0.0026
       11 C1     *110      -0.0000    0.0000   -0.0004   -0.0011   -0.0059    0.0012    0.0306    0.0000    0.0000    0.0009
       12 C1     *101       0.0000   -0.0000   -0.0000   -0.0000    0.0000    0.0000    0.0000    0.0162    0.0252    0.0000
       13 C1     *020      -0.0040    0.0038   -0.0000   -0.0078    0.0002    0.0110   -0.0013   -0.0000    0.0000    0.0080
       14 C1     *011      -0.0000   -0.0000    0.0000   -0.0000   -0.0000    0.0000    0.0000   -0.0007   -0.0011    0.0000
       15 C1     *002      -0.0041    0.0040   -0.0097    0.0065   -0.0000    0.0003    0.0000   -0.0000    0.0000    0.0020
       16 C2     1s         0.7018    0.7021   -0.1607   -0.1231   -0.0000    0.0148    0.0000    0.0000   -0.0000    0.0817
       17 C2     2s         0.0344    0.0353    0.3101    0.2473    0.0000   -0.0324   -0.0000    0.0000   -0.0000   -0.1269
       18 C2     *s        -0.0060   -0.0125    0.2316    0.2295   -0.0000   -0.0028   -0.0000   -0.0000    0.0000   -1.3890
       19 C2     2px        0.0003   -0.0003   -0.1009    0.1725    0.0138    0.4144    0.0130   -0.0000    0.0000   -0.1820
       20 C2     *px       -0.0007    0.0021   -0.0044    0.0700    0.0050    0.1410    0.0049    0.0000   -0.0000   -0.5925
       21 C2     2py       -0.0000    0.0000    0.0042   -0.0072    0.3312   -0.0174    0.3097   -0.0000   -0.0000    0.0076
       22 C2     *py        0.0000   -0.0001    0.0002   -0.0029    0.1204   -0.0059    0.1159    0.0000   -0.0000    0.0247
       23 C2     2pz        0.0000    0.0000    0.0000    0.0000    0.0000   -0.0000   -0.0000    0.4016    0.4184    0.0000
       24 C2     *pz       -0.0000   -0.0000   -0.0000   -0.0000    0.0000    0.0000   -0.0000    0.2837    0.6358    0.0000
       25 C2     *200      -0.0039   -0.0036    0.0046   -0.0048    0.0002   -0.0031    0.0013    0.0000    0.0000   -0.0026
       26 C2     *110      -0.0000   -0.0000   -0.0004    0.0011    0.0059    0.0012    0.0306    0.0000    0.0000    0.0009
       27 C2     *101       0.0000    0.0000   -0.0000    0.0000    0.0000   -0.0000   -0.0000   -0.0162    0.0252    0.0000
       28 C2     *020      -0.0040   -0.0038   -0.0000    0.0078   -0.0002    0.0110   -0.0013    0.0000   -0.0000    0.0080
       29 C2     *011      -0.0000   -0.0000    0.0000   -0.0000   -0.0000    0.0000    0.0000    0.0007   -0.0011    0.0000
       30 C2     *002      -0.0041   -0.0040   -0.0097   -0.0065    0.0000    0.0003    0.0000    0.0000   -0.0000    0.0020
       31 H3     1s        -0.0003    0.0002    0.0845   -0.1463   -0.1553    0.1248    0.1976   -0.0000    0.0000    0.0398
       32 H3     *s         0.0016   -0.0016    0.0177   -0.0658   -0.1112    0.1081    0.1972   -0.0000    0.0000    0.9809
       33 H4     1s        -0.0003    0.0002    0.0845   -0.1463    0.1553    0.1249   -0.1976   -0.0000    0.0000    0.0398
       34 H4     *s         0.0016   -0.0016    0.0177   -0.0659    0.1112    0.1081   -0.1972   -0.0000   -0.0000    0.9808
       35 H5     1s        -0.0003   -0.0002    0.0845    0.1463   -0.1553    0.1249   -0.1976    0.0000    0.0000    0.0398
       36 H5     *s         0.0016    0.0016    0.0177    0.0659   -0.1112    0.1081   -0.1972    0.0000   -0.0000    0.9808
       37 H6     1s        -0.0003   -0.0002    0.0845    0.1463    0.1553    0.1248    0.1976   -0.0000   -0.0000    0.0398
       38 H6     *s         0.0016    0.0016    0.0177    0.0658    0.1112    0.1081    0.1972    0.0000   -0.0000    0.9809
 
          Orbital           11        12        13        14        15    
          Energy            0.1414    0.1596    0.2452    0.3336    0.4784
          Occ. No.          0.0000    0.0000    0.0000    0.0000    0.0000
 
        1 C1     1s        -0.0000    0.1138    0.0000   -0.0706   -0.0203
        2 C1     2s         0.0000   -0.1593    0.0000    0.0317   -0.1878
        3 C1     *s         0.0003   -1.8483   -0.0001    3.0175   -0.2897
        4 C1     2px        0.0127    0.1179   -0.0136    0.1939   -0.5573
        5 C1     *px        0.0298    0.1022   -0.0700    2.8674    1.0636
        6 C1     2py        0.3042   -0.0049   -0.3264   -0.0081    0.0233
        7 C1     *py        0.7133   -0.0041   -1.6753   -0.1199   -0.0444
        8 C1     2pz       -0.0000    0.0000   -0.0000   -0.0000   -0.0000
        9 C1     *pz        0.0000    0.0000   -0.0000   -0.0000    0.0000
       10 C1     *200       0.0011    0.0050    0.0008   -0.0110   -0.0433
       11 C1     *110       0.0262   -0.0003    0.0189    0.0022    0.0054
       12 C1     *101      -0.0000   -0.0000   -0.0000    0.0000    0.0000
       13 C1     *020      -0.0011    0.0010   -0.0008    0.0151    0.0215
       14 C1     *011      -0.0000   -0.0000    0.0000    0.0000   -0.0000
       15 C1     *002      -0.0000    0.0056   -0.0000   -0.0061    0.0019
       16 C2     1s         0.0000   -0.1138    0.0000    0.0706   -0.0203
       17 C2     2s        -0.0000    0.1593    0.0000   -0.0317   -0.1878
       18 C2     *s        -0.0003    1.8483   -0.0001   -3.0175   -0.2897
       19 C2     2px        0.0127    0.1179    0.0136    0.1939    0.5573
       20 C2     *px        0.0298    0.1022    0.0700    2.8674   -1.0636
       21 C2     2py        0.3042   -0.0049    0.3264   -0.0081   -0.0233
       22 C2     *py        0.7133   -0.0041    1.6753   -0.1199    0.0444
       23 C2     2pz       -0.0000   -0.0000   -0.0000    0.0000    0.0000
       24 C2     *pz        0.0000    0.0000    0.0000   -0.0000   -0.0000
       25 C2     *200      -0.0011   -0.0050    0.0008    0.0110   -0.0433
       26 C2     *110      -0.0262    0.0003    0.0189   -0.0022    0.0054
       27 C2     *101       0.0000   -0.0000    0.0000    0.0000   -0.0000
       28 C2     *020       0.0011   -0.0010   -0.0008   -0.0151    0.0215
       29 C2     *011      -0.0000   -0.0000    0.0000   -0.0000    0.0000
       30 C2     *002       0.0000   -0.0056   -0.0000    0.0061    0.0019
       31 H3     1s         0.0757    0.0511    0.0192    0.0858    0.0714
       32 H3     *s         1.0071    1.0051   -1.4981    0.5530    0.1221
       33 H4     1s        -0.0757    0.0511   -0.0192    0.0858    0.0714
       34 H4     *s        -1.0074    1.0048    1.4982    0.5532    0.1222
       35 H5     1s         0.0757   -0.0511   -0.0192   -0.0858    0.0714
       36 H5     *s         1.0074   -1.0048    1.4982   -0.5532    0.1222
       37 H6     1s        -0.0757   -0.0511    0.0192   -0.0858    0.0714
       38 H6     *s        -1.0071   -1.0051   -1.4981   -0.5530    0.1221
--
 
 
++    Molecular charges:
      ------------------
 
      Mulliken charges per centre and basis function type
      ---------------------------------------------------
 
                C1      C2      H3      H4      H5      H6    
      1s       1.9917  1.9917  0.5307  0.5307  0.5307  0.5307
      2s       0.7054  0.7054  0.0000  0.0000  0.0000  0.0000
      2px      0.7724  0.7724  0.0000  0.0000  0.0000  0.0000
      2pz      0.5513  0.5513  0.0000  0.0000  0.0000  0.0000
      2py      0.7332  0.7332  0.0000  0.0000  0.0000  0.0000
      *s       0.5711  0.5711  0.3268  0.3268  0.3268  0.3268
      *px      0.2225  0.2225  0.0000  0.0000  0.0000  0.0000
      *pz      0.4440  0.4440  0.0000  0.0000  0.0000  0.0000
      *py      0.2826  0.2826  0.0000  0.0000  0.0000  0.0000
      *200     0.0040  0.0040  0.0000  0.0000  0.0000  0.0000
      *110     0.0154  0.0154  0.0000  0.0000  0.0000  0.0000
      *101     0.0047  0.0047  0.0000  0.0000  0.0000  0.0000
      *020     0.0126  0.0126  0.0000  0.0000  0.0000  0.0000
      *011     0.0000  0.0000  0.0000  0.0000  0.0000  0.0000
      *002    -0.0259 -0.0259  0.0000  0.0000  0.0000  0.0000
      Total    6.2850  6.2850  0.8575  0.8575  0.8575  0.8575
 
      N-E     -0.2850 -0.2850  0.1425  0.1425  0.1425  0.1425
 
      Total electronic charge=   16.000000
 
      Total            charge=   -0.000000
--
 
 
++    Molecular properties:
      ---------------------
 
      Charge (e):
                      =   -0.0000
      Dipole Moment (debye):
      Origin of the operator (angstrom)=   -1.3178    0.7205    0.0000
                   X=  2.5905E-12               Y= -1.1542E-12               Z=  7.9505E-16           Total=  2.8360E-12
      Quadrupole Moment (debye*angstrom):
      Origin of the operator (angstrom)=   -1.3178    0.7205    0.0000
                  XX= -1.2019E+01              XY= -3.5104E-03              XZ=  3.3042E-15              YY= -1.2099E+01
                  YZ= -3.0292E-16              ZZ= -1.4998E+01
      In traceless form (debye*angstrom)
                  XX=  1.5290E+00              XY= -5.2656E-03              XZ=  4.9564E-15              YY=  1.4093E+00
                  YZ= -4.5438E-16              ZZ= -2.9383E+00
--
 
 
      Input file to MOLDEN was generated!
 
 ###############################################################################
 ###############################################################################
 ###                                                                         ###
 ###                                                                         ###
 ###    WARNING: RunFile label nBas                                          ###
 ###    was used       81 times                                              ###
 ###                                                                         ###
 ###                                                                         ###
 ###############################################################################
 ###############################################################################
--- Stop Module: scf at Wed Jul  8 10:10:21 2026 /rc=_RC_ALL_IS_WELL_ ---
*** files: 01_Ethylene_Geom_Hess_DFT.scf.molden 01_Ethylene_Geom_Hess_DFT.ScfOrb 01_Ethylene_Geom_Hess_DFT.scf.h5 xmldump
    saved to directory /vscratch/grp-cyberwksp21/sbakenhaster/wed_7_8/openmolcas_pyspawn/Tutorials_OpenMolcas/01_Geometry_Hessian_DFT
--- Module scf spent 3 seconds ---

*** symbolic link created: INPORB -> 01_Ethylene_Geom_Hess_DFT.ScfOrb
--- Start Module: slapaf at Wed Jul  8 10:10:21 2026 ---
 
()()()()()()()()()()()()()()()()()()()()()()()()()()()()()()()()()()()()()()()()()()()()()()()()()()

                                              &SLAPAF

                       only a single process is used, running in SERIAL mode
                       available to each process: 2.0 GB of memory, 1 thread?
                                            pid: 454916
()()()()()()()()()()()()()()()()()()()()()()()()()()()()()()()()()()()()()()()()()()()()()()()()()()
 
--- Stop Module: slapaf at Wed Jul  8 10:10:21 2026 /rc=_RC_INVOKED_OTHER_MODULE_ ---
*** files: 01_Ethylene_Geom_Hess_DFT.slapaf.h5 xmldump
    saved to directory /vscratch/grp-cyberwksp21/sbakenhaster/wed_7_8/openmolcas_pyspawn/Tutorials_OpenMolcas/01_Geometry_Hessian_DFT

*** symbolic link created: INPORB -> 01_Ethylene_Geom_Hess_DFT.ScfOrb
--- Start Module: alaska at Wed Jul  8 10:10:21 2026 ---
 
()()()()()()()()()()()()()()()()()()()()()()()()()()()()()()()()()()()()()()()()()()()()()()()()()()

                                              &ALASKA

                       only a single process is used, running in SERIAL mode
                       available to each process: 2.0 GB of memory, 1 thread?
                                            pid: 454919
()()()()()()()()()()()()()()()()()()()()()()()()()()()()()()()()()()()()()()()()()()()()()()()()()()
 
 
                     Threshold for contributions to the gradient: 1.000E-07
 
 
                    ********************************************
                    * Symmetry Adapted Cartesian Displacements *
                    ********************************************
 
 
           Irreducible representation : a  
           Basis function(s) of irrep: x, y, xy, Rz, z, xz, Ry, yz, Rx, I                                              
 
 Basis Label        Type   Center Phase
   1   C1           x         1     1
   2   C1           y         1     1
   3   C1           z         1     1
   4   C2           x         2     1
   5   C2           y         2     1
   6   C2           z         2     1
   7   H3           x         3     1
   8   H3           y         3     1
   9   H3           z         3     1
  10   H4           x         4     1
  11   H4           y         4     1
  12   H4           z         4     1
  13   H5           x         5     1
  14   H5           y         5     1
  15   H5           z         5     1
  16   H6           x         6     1
  17   H6           y         6     1
  18   H6           z         6     1
 
                     No automatic utilization of translational and rotational invariance of the energy is employed.
 
 
 DFT contribution computed for a moving grid.
 
 Conventional ERI gradients!
 
 **************************************************
 *                                                *
 *              Molecular gradients               *
 *                                                *
 **************************************************
 
  Irreducible representation: a  
 ------------------------------------------------------------------------------------------
                              X                       Y                       Z
 ------------------------------------------------------------------------------------------
  C1                4.24925787072628E-03   -1.64030588879260E-04   -7.15783218859930E-15
  C2               -4.24925787089059E-03    1.64030589258291E-04    7.37851115987087E-15
  H3                1.88063410334061E-03    1.92898382807227E-03    5.00183035877192E-16
  H4                1.70812741217929E-03   -2.08263367955475E-03    1.72984064865922E-16
  H5               -1.70812741213067E-03    2.08263367939532E-03   -1.03127730332389E-15
  H6               -1.88063410322870E-03   -1.92898382829565E-03    2.38554322219107E-17
 ------------------------------------------------------------------------------------------
 
--- Stop Module: alaska at Wed Jul  8 10:10:22 2026 /rc=_RC_ALL_IS_WELL_ ---
*** files: xmldump
    saved to directory /vscratch/grp-cyberwksp21/sbakenhaster/wed_7_8/openmolcas_pyspawn/Tutorials_OpenMolcas/01_Geometry_Hessian_DFT
--- Module alaska spent 1 second ---

*** symbolic link created: INPORB -> 01_Ethylene_Geom_Hess_DFT.ScfOrb
--- Start Module: slapaf at Wed Jul  8 10:10:22 2026 ---
 
()()()()()()()()()()()()()()()()()()()()()()()()()()()()()()()()()()()()()()()()()()()()()()()()()()

                                              &SLAPAF

                       only a single process is used, running in SERIAL mode
                       available to each process: 2.0 GB of memory, 1 thread?
                                            pid: 454924
()()()()()()()()()()()()()()()()()()()()()()()()()()()()()()()()()()()()()()()()()()()()()()()()()()
 
 
 
++       Slapaf input parameters:
         ------------------------
 
 Maximum number of iterations:               900
 Convergence test a la Schlegel.
 Convergence criterion on gradient/para.<=: 3.0E-04
 Convergence criterion on step/parameter<=: 3.0E-04
 Convergence criterion on energy change <=: 0.0E+00
 Parameters for step-restricted optimization
 Maximum step length (initial seed):       3.00E-01
 
 -RFO activated with parameters:
   Maximum number of data points used in RFO:      5
 Line search is performed
 
 
 -Optimization for minimum.
  Optimization method: RS-RFO.
 
 -Initial Hessian guessed by Hessian Model Function (HMF).
  HMF augmented with weak interactions.
 
 -Hessian update method: Broyden-Fletcher-Goldfarb-Shanno
  Maximum number of points in Hessian update:  5
 
 -Relaxation will be done on non-redundant internal coordinates, based on
  force constant weighted redundant internal coordinates.
 
--
 
 ******************************************
 * Statistics of the internal coordinates *
 ******************************************
 Translations and Rotations:         0
 Bonds                     :         5
 Angles                    :         6
 Torsions                  :         4
 Out-of-plane angles       :         4
 
 
**********************************************************************************************************************
*                                    Energy Statistics for Geometry Optimization                                     *
**********************************************************************************************************************
                       Energy     Grad      Grad              Step                 Estimated   Geom       Hessian     
Iter      Energy       Change     Norm      Max    Element    Max     Element     Final Energy Update Update   Index  
  1    -78.58737424  0.00000000 0.008074  0.007586 nrc005   0.011069  nrc005      -78.58743462 RS-RFO  None      0    
 
       +----------------------------------+----------------------------------+
       +    Cartesian Displacements       +    Gradient in internals         +
       +  Value      Threshold Converged? +  Value      Threshold Converged? +
 +-----+----------------------------------+----------------------------------+
 + RMS + 7.9442E-03  1.2000E-03     No    + 3.6109E-03  3.0000E-04     No    +
 +-----+----------------------------------+----------------------------------+
 + Max + 9.2931E-03  1.8000E-03     No    + 7.5861E-03  4.5000E-04     No    +
 +-----+----------------------------------+----------------------------------+
 
 Convergence not reached yet!
 
*****************************************************************************************************************
*****************************************************************************************************************
 
++ Geometry section
 
********************************************************************************
  Geometrical information of the new structure
********************************************************************************
 
 
 *********************************************************
 * Nuclear coordinates for the next iteration / bohr     *
 *********************************************************
  ATOM              X               Y               Z     
  C1              -3.745287        1.413951        0.000000
  C2              -1.235168        1.309030       -0.000000
  H3              -4.899350       -0.283591        0.000000
  H4              -4.753714        3.201848        0.000000
  H5              -0.226741       -0.478866        0.000000
  H6              -0.081104        3.006573        0.000000
 
 
 *********************************************************
 * Nuclear coordinates for the next iteration / angstrom *
 *********************************************************
  ATOM              X               Y               Z     
  C1              -1.981920        0.748231        0.000000
  C2              -0.653623        0.692709       -0.000000
  H3              -2.592624       -0.150070        0.000000
  H4              -2.515557        1.694345        0.000000
  H5              -0.119986       -0.253405        0.000000
  H6              -0.042919        1.591010        0.000000
 
 
                    *************************************** 
                    *    InterNuclear Distances / bohr    * 
                    *************************************** 
 
               1 C1            2 C2            3 H3            4 H4            5 H5    
    1 C1       0.000000
    2 C2       2.512311        0.000000
    3 H3       2.052684        3.995332        0.000000
    4 H4       2.052681        3.995363        3.488480        0.000000
    5 H5       3.995363        2.052681        4.676688        5.834478        0.000000
    6 H6       3.995332        2.052684        5.834438        4.676688        3.488480
 
               6 H6    
    6 H6       0.000000
 
                    ******************************************* 
                    *    InterNuclear Distances / angstrom    * 
                    ******************************************* 
 
               1 C1            2 C2            3 H3            4 H4            5 H5    
    1 C1       0.000000
    2 C2       1.329458        0.000000
    3 H3       1.086234        2.114238        0.000000
    4 H4       1.086232        2.114255        1.846024        0.000000
    5 H5       2.114255        1.086232        2.474797        3.087473        0.000000
    6 H6       2.114238        1.086234        3.087452        2.474797        1.846024
 
               6 H6    
    6 H6       0.000000
 
                    ************************************** 
                    *    Valence Bond Angles / degree    * 
                    ************************************** 
                          Atom centers                 Phi
                      2 C2       1 C1       3 H3       121.82
                      2 C2       1 C1       4 H4       121.82
                      3 H3       1 C1       4 H4       116.37
                      1 C1       2 C2       5 H5       121.82
                      1 C1       2 C2       6 H6       121.82
                      5 H5       2 C2       6 H6       116.37
 
           ***************************************************************
           *              Valence Dihedral Angles / degree               *
           ***************************************************************
                    Atom centers                       Phi1     Phi2     Theta 
           3 H3       1 C1       2 C2       5 H5        121.82   121.82    -0.00
           3 H3       1 C1       2 C2       6 H6        121.82   121.82  -180.00
           4 H4       1 C1       2 C2       5 H5        121.82   121.82   180.00
           4 H4       1 C1       2 C2       6 H6        121.82   121.82     0.00
--
--- Stop Module: slapaf at Wed Jul  8 10:10:23 2026 /rc=_RC_CONTINUE_LOOP_ ---
*** files: 01_Ethylene_Geom_Hess_DFT.geo.molden 01_Ethylene_Geom_Hess_DFT.slapaf.h5 01_Ethylene_Geom_Hess_DFT.structure 01_Ethylene_Geom_Hess_DFT.Opt.xyz xmldump
    saved to directory /vscratch/grp-cyberwksp21/sbakenhaster/wed_7_8/openmolcas_pyspawn/Tutorials_OpenMolcas/01_Geometry_Hessian_DFT

>>> END DO

*** symbolic link created: INPORB -> 01_Ethylene_Geom_Hess_DFT.ScfOrb
--- Start Module: seward at Wed Jul  8 10:10:23 2026 ---
--- Stop Module: seward at Wed Jul  8 10:10:24 2026 /rc=_RC_ALL_IS_WELL_ ---
*** files: xmldump
    saved to directory /vscratch/grp-cyberwksp21/sbakenhaster/wed_7_8/openmolcas_pyspawn/Tutorials_OpenMolcas/01_Geometry_Hessian_DFT
--- Module seward spent 1 second ---

*** symbolic link created: INPORB -> 01_Ethylene_Geom_Hess_DFT.ScfOrb
--- Start Module: scf at Wed Jul  8 10:10:24 2026 ---
--- Stop Module: scf at Wed Jul  8 10:10:27 2026 /rc=_RC_ALL_IS_WELL_ ---
*** files: 01_Ethylene_Geom_Hess_DFT.scf.molden 01_Ethylene_Geom_Hess_DFT.ScfOrb 01_Ethylene_Geom_Hess_DFT.scf.h5 xmldump
    saved to directory /vscratch/grp-cyberwksp21/sbakenhaster/wed_7_8/openmolcas_pyspawn/Tutorials_OpenMolcas/01_Geometry_Hessian_DFT
--- Module scf spent 2 seconds ---

*** symbolic link created: INPORB -> 01_Ethylene_Geom_Hess_DFT.ScfOrb
--- Start Module: slapaf at Wed Jul  8 10:10:27 2026 ---
--- Stop Module: slapaf at Wed Jul  8 10:10:27 2026 /rc=_RC_INVOKED_OTHER_MODULE_ ---
*** files: 01_Ethylene_Geom_Hess_DFT.slapaf.h5 xmldump
    saved to directory /vscratch/grp-cyberwksp21/sbakenhaster/wed_7_8/openmolcas_pyspawn/Tutorials_OpenMolcas/01_Geometry_Hessian_DFT

*** symbolic link created: INPORB -> 01_Ethylene_Geom_Hess_DFT.ScfOrb
--- Start Module: alaska at Wed Jul  8 10:10:27 2026 ---
--- Stop Module: alaska at Wed Jul  8 10:10:28 2026 /rc=_RC_ALL_IS_WELL_ ---
*** files: xmldump
    saved to directory /vscratch/grp-cyberwksp21/sbakenhaster/wed_7_8/openmolcas_pyspawn/Tutorials_OpenMolcas/01_Geometry_Hessian_DFT
--- Module alaska spent 1 second ---

*** symbolic link created: INPORB -> 01_Ethylene_Geom_Hess_DFT.ScfOrb
--- Start Module: slapaf at Wed Jul  8 10:10:28 2026 ---
 
**********************************************************************************************************************
*                                    Energy Statistics for Geometry Optimization                                     *
**********************************************************************************************************************
                       Energy     Grad      Grad              Step                 Estimated   Geom       Hessian     
Iter      Energy       Change     Norm      Max    Element    Max     Element     Final Energy Update Update   Index  
  1    -78.58737424  0.00000000 0.008074  0.007586 nrc005   0.011069  nrc005      -78.58743462 RS-RFO  None      0    
  2    -78.58745190 -0.00007766 0.002103  0.002253 nrc005   0.004769  nrc005      -78.58745923 RS-RFO  BFGS      0    
 
       +----------------------------------+----------------------------------+
       +    Cartesian Displacements       +    Gradient in internals         +
       +  Value      Threshold Converged? +  Value      Threshold Converged? +
 +-----+----------------------------------+----------------------------------+
 + RMS + 3.4554E-03  1.2000E-03     No    + 9.4046E-04  3.0000E-04     No    +
 +-----+----------------------------------+----------------------------------+
 + Max + 4.1092E-03  1.8000E-03     No    + 2.2531E-03  4.5000E-04     No    +
 +-----+----------------------------------+----------------------------------+
 
 Convergence not reached yet!
 
*****************************************************************************************************************
*****************************************************************************************************************
 
++ Geometry section
 
********************************************************************************
  Geometrical information of the new structure
********************************************************************************
 
 
 *********************************************************
 * Nuclear coordinates for the next iteration / bohr     *
 *********************************************************
  ATOM              X               Y               Z     
  C1              -3.746772        1.414003       -0.000000
  C2              -1.233683        1.308979        0.000000
  H3              -4.903349       -0.284538        0.000000
  H4              -4.757602        3.203117       -0.000000
  H5              -0.222853       -0.480135       -0.000000
  H6              -0.077106        3.007520        0.000000
 
 
 *********************************************************
 * Nuclear coordinates for the next iteration / angstrom *
 *********************************************************
  ATOM              X               Y               Z     
  C1              -1.982706        0.748258       -0.000000
  C2              -0.652837        0.692682        0.000000
  H3              -2.594740       -0.150571        0.000000
  H4              -2.517614        1.695017       -0.000000
  H5              -0.117929       -0.254077       -0.000000
  H6              -0.040803        1.591511        0.000000
 
--
--- Stop Module: slapaf at Wed Jul  8 10:10:28 2026 /rc=_RC_CONTINUE_LOOP_ ---
*** files: 01_Ethylene_Geom_Hess_DFT.geo.molden 01_Ethylene_Geom_Hess_DFT.slapaf.h5 01_Ethylene_Geom_Hess_DFT.structure 01_Ethylene_Geom_Hess_DFT.Opt.xyz xmldump
    saved to directory /vscratch/grp-cyberwksp21/sbakenhaster/wed_7_8/openmolcas_pyspawn/Tutorials_OpenMolcas/01_Geometry_Hessian_DFT

>>> END DO

*** symbolic link created: INPORB -> 01_Ethylene_Geom_Hess_DFT.ScfOrb
--- Start Module: seward at Wed Jul  8 10:10:29 2026 ---
--- Stop Module: seward at Wed Jul  8 10:10:30 2026 /rc=_RC_ALL_IS_WELL_ ---
*** files: xmldump
    saved to directory /vscratch/grp-cyberwksp21/sbakenhaster/wed_7_8/openmolcas_pyspawn/Tutorials_OpenMolcas/01_Geometry_Hessian_DFT
--- Module seward spent 1 second ---

*** symbolic link created: INPORB -> 01_Ethylene_Geom_Hess_DFT.ScfOrb
--- Start Module: scf at Wed Jul  8 10:10:30 2026 ---
--- Stop Module: scf at Wed Jul  8 10:10:33 2026 /rc=_RC_ALL_IS_WELL_ ---
*** files: 01_Ethylene_Geom_Hess_DFT.scf.molden 01_Ethylene_Geom_Hess_DFT.ScfOrb 01_Ethylene_Geom_Hess_DFT.scf.h5 xmldump
    saved to directory /vscratch/grp-cyberwksp21/sbakenhaster/wed_7_8/openmolcas_pyspawn/Tutorials_OpenMolcas/01_Geometry_Hessian_DFT
--- Module scf spent 2 seconds ---

*** symbolic link created: INPORB -> 01_Ethylene_Geom_Hess_DFT.ScfOrb
--- Start Module: slapaf at Wed Jul  8 10:10:33 2026 ---
--- Stop Module: slapaf at Wed Jul  8 10:10:33 2026 /rc=_RC_INVOKED_OTHER_MODULE_ ---
*** files: 01_Ethylene_Geom_Hess_DFT.slapaf.h5 xmldump
    saved to directory /vscratch/grp-cyberwksp21/sbakenhaster/wed_7_8/openmolcas_pyspawn/Tutorials_OpenMolcas/01_Geometry_Hessian_DFT

*** symbolic link created: INPORB -> 01_Ethylene_Geom_Hess_DFT.ScfOrb
--- Start Module: alaska at Wed Jul  8 10:10:33 2026 ---
--- Stop Module: alaska at Wed Jul  8 10:10:34 2026 /rc=_RC_ALL_IS_WELL_ ---
*** files: xmldump
    saved to directory /vscratch/grp-cyberwksp21/sbakenhaster/wed_7_8/openmolcas_pyspawn/Tutorials_OpenMolcas/01_Geometry_Hessian_DFT
--- Module alaska spent 1 second ---

*** symbolic link created: INPORB -> 01_Ethylene_Geom_Hess_DFT.ScfOrb
--- Start Module: slapaf at Wed Jul  8 10:10:34 2026 ---
 
**********************************************************************************************************************
*                                    Energy Statistics for Geometry Optimization                                     *
**********************************************************************************************************************
                       Energy     Grad      Grad              Step                 Estimated   Geom       Hessian     
Iter      Energy       Change     Norm      Max    Element    Max     Element     Final Energy Update Update   Index  
  1    -78.58737424  0.00000000 0.008074  0.007586 nrc005   0.011069  nrc005      -78.58743462 RS-RFO  None      0    
  2    -78.58745190 -0.00007766 0.002103  0.002253 nrc005   0.004769  nrc005      -78.58745923 RS-RFO  BFGS      0    
  3    -78.58745928 -0.00000738 0.000211  0.000108 nrc001   0.000214  nrc001      -78.58745929 RS-RFO  BFGS      0    
 
       +----------------------------------+----------------------------------+
       +    Cartesian Displacements       +    Gradient in internals         +
       +  Value      Threshold Converged? +  Value      Threshold Converged? +
 +-----+----------------------------------+----------------------------------+
 + RMS + 9.1948E-05  1.2000E-03     Yes   + 1.2174E-04  3.0000E-04     Yes   +
 +-----+----------------------------------+----------------------------------+
 + Max + 1.0721E-04  1.8000E-03     Yes   + 1.0846E-04  4.5000E-04     Yes   +
 +-----+----------------------------------+----------------------------------+
 
 Geometry is converged in   3 iterations to a Minimum Structure
 
*****************************************************************************************************************
*****************************************************************************************************************
 
++ Geometry section
 
********************************************************************************
  Geometrical information of the final structure
********************************************************************************
 
  NOTE: on convergence the final predicted structure will be printed here.
  This is not identical to the structure printed in the head of the output.
 
 *********************************************************
 * Nuclear coordinates of the final structure / bohr     *
 *********************************************************
  ATOM              X               Y               Z     
  C1              -3.746722        1.414000        0.000000
  C2              -1.233733        1.308982       -0.000000
  H3              -4.903455       -0.284522       -0.000000
  H4              -4.757708        3.203110        0.000000
  H5              -0.222747       -0.480128        0.000000
  H6              -0.077000        3.007504       -0.000000
 
 
 *********************************************************
 * Nuclear coordinates of the final structure / angstrom *
 *********************************************************
  ATOM              X               Y               Z     
  C1              -1.982680        0.748256        0.000000
  C2              -0.652863        0.692684       -0.000000
  H3              -2.594796       -0.150562       -0.000000
  H4              -2.517670        1.695013        0.000000
  H5              -0.117873       -0.254073        0.000000
  H6              -0.040747        1.591502       -0.000000
 
 
                    *************************************** 
                    *    InterNuclear Distances / bohr    * 
                    *************************************** 
 
               1 C1            2 C2            3 H3            4 H4            5 H5    
    1 C1       0.000000
    2 C2       2.515182        0.000000
    3 H3       2.054996        4.000764        0.000000
    4 H4       2.054996        4.000765        3.490676        0.000000
    5 H5       4.000765        2.054996        4.684793        5.842269        0.000000
    6 H6       4.000764        2.054996        5.842268        4.684793        3.490676
 
               6 H6    
    6 H6       0.000000
 
                    ******************************************* 
                    *    InterNuclear Distances / angstrom    * 
                    ******************************************* 
 
               1 C1            2 C2            3 H3            4 H4            5 H5    
    1 C1       0.000000
    2 C2       1.330977        0.000000
    3 H3       1.087457        2.117113        0.000000
    4 H4       1.087457        2.117113        1.847186        0.000000
    5 H5       2.117113        1.087457        2.479086        3.091596        0.000000
    6 H6       2.117113        1.087457        3.091595        2.479086        1.847186
 
               6 H6    
    6 H6       0.000000
 
                    ************************************** 
                    *    Valence Bond Angles / degree    * 
                    ************************************** 
                          Atom centers                 Phi
                      2 C2       1 C1       3 H3       121.86
                      2 C2       1 C1       4 H4       121.86
                      3 H3       1 C1       4 H4       116.27
                      1 C1       2 C2       5 H5       121.86
                      1 C1       2 C2       6 H6       121.86
                      5 H5       2 C2       6 H6       116.27
 
           ***************************************************************
           *              Valence Dihedral Angles / degree               *
           ***************************************************************
                    Atom centers                       Phi1     Phi2     Theta 
           3 H3       1 C1       2 C2       5 H5        121.86   121.86    -0.00
           3 H3       1 C1       2 C2       6 H6        121.86   121.86   180.00
           4 H4       1 C1       2 C2       5 H5        121.86   121.86   180.00
           4 H4       1 C1       2 C2       6 H6        121.86   121.86     0.00
--
--- Stop Module: slapaf at Wed Jul  8 10:10:34 2026 /rc=_RC_INVOKED_OTHER_MODULE_ ---
*** files: 01_Ethylene_Geom_Hess_DFT.geo.molden 01_Ethylene_Geom_Hess_DFT.slapaf.h5 01_Ethylene_Geom_Hess_DFT.structure 01_Ethylene_Geom_Hess_DFT.Opt.xyz xmldump
    saved to directory /vscratch/grp-cyberwksp21/sbakenhaster/wed_7_8/openmolcas_pyspawn/Tutorials_OpenMolcas/01_Geometry_Hessian_DFT

*** symbolic link created: INPORB -> 01_Ethylene_Geom_Hess_DFT.ScfOrb
--- Start Module: last_energy at Wed Jul  8 10:10:34 2026 ---
 
()()()()()()()()()()()()()()()()()()()()()()()()()()()()()()()()()()()()()()()()()()()()()()()()()()

                                            &LAST_ENERGY

                       only a single process is used, running in SERIAL mode
                       available to each process: 2.0 GB of memory, 1 thread?
                                            pid: 454960
()()()()()()()()()()()()()()()()()()()()()()()()()()()()()()()()()()()()()()()()()()()()()()()()()()
 
 
    Geometry read from RUNFILE
 
               SEWARD will generate:
                  Multipole Moment integrals up to order  2
                  Kinetic Energy integrals
                  Nuclear Attraction integrals (point charge)
                  One-Electron Hamiltonian integrals
                  Velocity integrals
                  Orbital angular momentum around ( -2.4902   1.3615   0.0000 )
                  Velocity quadrupole around ( -2.4902   1.3615   0.0000 )
                  Two-Electron Repulsion integrals
 
                   Integrals are discarded if absolute value <: 1.00E-14
                   Integral cutoff threshold is set to       <: 1.00E-16
 
            Nuclear Potential Energy             33.33299093 au
 
 
      Basis set specifications :
      Symmetry species         a  
      Basis functions           38
 
 ###############################################################################
 ###############################################################################
 ###                                                                         ###
 ###                                                                         ###
 ###     Minimized-density-differences option turned off!                    ###
 ###                                                                         ###
 ###                                                                         ###
 ###############################################################################
 ###############################################################################
++    Input section:
      --------------
 
      Header of the integral files:
      
       Integrals generated by Gateway/Seward, Wed Jul  8 10:10:35 2026
 
 
      Cartesian coordinates in angstrom:
      -----------------------------------------------------
      No.  Label        X            Y            Z        
      -----------------------------------------------------
       1   C1        -1.98267965   0.74825649   0.00000000
       2   C2        -0.65286335   0.69268351  -0.00000000
       3   H3        -2.59479650  -0.15056247  -0.00000000
       4   H4        -2.51767048   1.69501263   0.00000000
       5   H5        -0.11787252  -0.25407263   0.00000000
       6   H6        -0.04074650   1.59150247  -0.00000000
      -----------------------------------------------------
      Nuclear repulsion energy =   33.33299093
--
 
++    Orbital specifications:
      -----------------------
 
      Symmetry species               1
                                     a
      Frozen orbitals                0
      Occupied orbitals              8
      Secondary orbitals            30
      Deleted orbitals               0
      Total number of orbitals      38
      Number of basis functions     38
--
 
      Molecular charge                           0.000
 
 
      Numerical integration parameters
      --------------------------------
      Radial quadrature type:                         MHL       
      Size of radial grid:                            75
      Lebedev angular grid:                           29
      Angular grid pruned with the crowding factor:  3.00E+00
                                 and fading factor:  6.00E+00
      Screening threshold for integral computation:   1.00E-11
      Radial quadrature accuracy:                     1.00E-25
      Maximum batch size:                             128
      AO values are stored on disk
      The same grid will be used for all iterations.
 
      DFT functional specifications
      -----------------------------
      Using Libxc version: 7.0.0
      Please cite the following reference:
      S. Lehtola, C. Steigemann, M. J.T. Oliveira, and M. A.L. Marques.,  SoftwareX 7, 1–5 (2018) doi:10.1016/j.softx.2017.11.002
 
      * B3LYP
        - P. J. Stephens, F. J. Devlin, C. F. Chabalowski, and M. J. Frisch.,  J. Phys. Chem. 98, 11623 (1994) doi:10.1021/j100096a001
 
++    Optimization specifications:
      ----------------------------
 
      SCF Algorithm: Conventional
      D(i)-D(i-1) density differences are used
      Number of density matrices in core                 5
      Maximum number of NDDO SCF iterations            400
      Maximum number of HF SCF iterations              400
      Threshold for SCF energy change             1.00E-09
      Threshold for density matrix                1.00E-04
      Threshold for Fock matrix                   1.50E-04
      Threshold for linear dependence             1.00E-09
      Threshold at which DIIS is turned on        1.50E-01
      Maximum depth in the DIIS procedure                5
      Maximum depth in the BFGS Hessian update          30
      Threshold at which QNR/C2DIIS is turned on  7.50E-02
      Threshold for Norm(delta) (QNR/C2DIIS)      1.00E-03
      All orbitals punched on: SCFORB
--
 
      Detected old SCF orbitals                                                       
 
 
++ Convergence information
                                   B3LYP      iterations: Energy and convergence statistics
 
Iter     Tot. B3LYP      One-elec.       Two-elec.     Energy      Max Dij or  Max Fij      DNorm      TNorm      AccCon     Time
         Energy          Energy          Energy        Change      Delta Norm                                                in Sec.
   1   -78.587459294  -180.229086395    68.308636175   0.00E+00    3.97E-05    1.19E-05     4.12E+00   9.01E+01   None         0.
   2   -78.587459296  -180.228982703    68.308532480  -2.54E-09*   5.88E-06    2.39E-06     1.57E-04   9.01E+01   EDIIS        0.
   3   -78.587459296  -180.229046872    68.308596649  -2.54E-11    1.67E-06    8.18E-07     2.55E-05   9.01E+01   c2DIIS       0.
 
       Convergence after   3 Iterations
--
 
 *****************************************************************************************************************************
 *                                                                                                                           *
 *                                             SCF/KS-DFT Program, Final results                                             *
 *                                                                                                                           *
 *                                                                                                                           *
 *                                                                                                                           *
 *                                                       Final Results                                                       *
 *                                                                                                                           *
 *****************************************************************************************************************************
 
::    Total KS-DFT energy                             -78.5874592962
      One-electron energy                            -180.2290468723
      Two-electron energy                              68.3085966491
      Nuclear repulsion energy                         33.3329909270
      Kinetic energy (interpolated)                    77.7700884615
      Virial theorem                                    1.0105100926
      Total spin, S(S+1)                                0.0000000000
      Total spin, S                                     0.0000000000
      Max non-diagonal density matrix element           0.0000016741
      Max non-diagonal Fock matrix element              0.0000008181
 
 
      All orbitals with orbital energies smaller than  E(LUMO)+0.5 are printed
 
++    Molecular orbitals:
      -------------------
 
      Title: RKS-DFT orbitals

      Molecular orbitals for symmetry species 1: a  
 
          Orbital            1         2         3         4         5         6         7         8         9        10    
          Energy          -10.1843  -10.1834   -0.7547   -0.5773   -0.4647   -0.4164   -0.3532   -0.2666    0.0188    0.1224
          Occ. No.          2.0000    2.0000    2.0000    2.0000    2.0000    2.0000    2.0000    2.0000    0.0000    0.0000
 
        1 C1     1s         0.7018   -0.7021   -0.1604    0.1231    0.0000    0.0147    0.0000   -0.0000    0.0000    0.0818
        2 C1     2s         0.0344   -0.0352    0.3101   -0.2475   -0.0000   -0.0327   -0.0000    0.0000   -0.0000   -0.1270
        3 C1     *s        -0.0060    0.0124    0.2328   -0.2309   -0.0000   -0.0033   -0.0000    0.0000   -0.0000   -1.3807
        4 C1     2px       -0.0003   -0.0003    0.1000    0.1719    0.0138   -0.4138   -0.0129    0.0000    0.0000    0.1832
        5 C1     *px        0.0007    0.0020    0.0043    0.0698    0.0051   -0.1414   -0.0049   -0.0000    0.0000    0.5908
        6 C1     2py        0.0000    0.0000   -0.0042   -0.0072    0.3308    0.0173   -0.3092   -0.0000    0.0000   -0.0077
        7 C1     *py       -0.0000   -0.0001   -0.0002   -0.0029    0.1209    0.0059   -0.1167   -0.0000   -0.0000   -0.0247
        8 C1     2pz       -0.0000   -0.0000   -0.0000    0.0000    0.0000    0.0000   -0.0000    0.4014   -0.4190    0.0000
        9 C1     *pz        0.0000   -0.0000   -0.0000    0.0000    0.0000   -0.0000   -0.0000    0.2845   -0.6321    0.0000
       10 C1     *200      -0.0039    0.0036    0.0046    0.0047   -0.0003   -0.0031    0.0013    0.0000    0.0000   -0.0025
       11 C1     *110      -0.0000    0.0000   -0.0004   -0.0010   -0.0061    0.0012    0.0305    0.0000    0.0000    0.0009
       12 C1     *101      -0.0000    0.0000   -0.0000   -0.0000   -0.0000    0.0000   -0.0000    0.0161    0.0250   -0.0000
       13 C1     *020      -0.0039    0.0038   -0.0001   -0.0078    0.0003    0.0110   -0.0013   -0.0000    0.0000    0.0080
       14 C1     *011       0.0000    0.0000    0.0000   -0.0000   -0.0000    0.0000    0.0000   -0.0007   -0.0010   -0.0000
       15 C1     *002      -0.0040    0.0039   -0.0097    0.0065    0.0000    0.0003    0.0000   -0.0000   -0.0000    0.0020
       16 C2     1s         0.7018    0.7021   -0.1604   -0.1231   -0.0000    0.0147    0.0000    0.0000    0.0000    0.0818
       17 C2     2s         0.0344    0.0352    0.3101    0.2475    0.0000   -0.0327   -0.0000   -0.0000   -0.0000   -0.1270
       18 C2     *s        -0.0060   -0.0124    0.2328    0.2309    0.0000   -0.0033   -0.0000   -0.0000   -0.0000   -1.3807
       19 C2     2px        0.0003   -0.0003   -0.1000    0.1719    0.0138    0.4138    0.0129    0.0000   -0.0000   -0.1832
       20 C2     *px       -0.0007    0.0020   -0.0043    0.0698    0.0051    0.1414    0.0049   -0.0000   -0.0000   -0.5908
       21 C2     2py       -0.0000    0.0000    0.0042   -0.0072    0.3308   -0.0173    0.3092    0.0000    0.0000    0.0077
       22 C2     *py        0.0000   -0.0001    0.0002   -0.0029    0.1209   -0.0059    0.1167    0.0000    0.0000    0.0247
       23 C2     2pz        0.0000    0.0000    0.0000    0.0000   -0.0000   -0.0000   -0.0000    0.4014    0.4190   -0.0000
       24 C2     *pz        0.0000   -0.0000    0.0000    0.0000    0.0000   -0.0000   -0.0000    0.2845    0.6321   -0.0000
       25 C2     *200      -0.0039   -0.0036    0.0046   -0.0047    0.0003   -0.0031    0.0013   -0.0000    0.0000   -0.0025
       26 C2     *110      -0.0000   -0.0000   -0.0004    0.0010    0.0061    0.0012    0.0305    0.0000   -0.0000    0.0009
       27 C2     *101      -0.0000   -0.0000   -0.0000    0.0000   -0.0000    0.0000   -0.0000   -0.0161    0.0250   -0.0000
       28 C2     *020      -0.0039   -0.0038   -0.0001    0.0078   -0.0003    0.0110   -0.0013    0.0000    0.0000    0.0080
       29 C2     *011       0.0000   -0.0000   -0.0000   -0.0000    0.0000   -0.0000    0.0000    0.0007   -0.0010    0.0000
       30 C2     *002      -0.0040   -0.0039   -0.0097   -0.0065   -0.0000    0.0003    0.0000    0.0000   -0.0000    0.0020
       31 H3     1s        -0.0003    0.0002    0.0844   -0.1459   -0.1553    0.1248    0.1973    0.0000    0.0000    0.0404
       32 H3     *s         0.0016   -0.0015    0.0178   -0.0659   -0.1120    0.1082    0.1969    0.0000    0.0000    0.9770
       33 H4     1s        -0.0003    0.0002    0.0844   -0.1459    0.1553    0.1248   -0.1973   -0.0000    0.0000    0.0404
       34 H4     *s         0.0016   -0.0015    0.0178   -0.0659    0.1120    0.1082   -0.1969   -0.0000    0.0000    0.9770
       35 H5     1s        -0.0003   -0.0002    0.0844    0.1459   -0.1553    0.1248   -0.1973   -0.0000    0.0000    0.0404
       36 H5     *s         0.0016    0.0015    0.0178    0.0659   -0.1120    0.1082   -0.1969   -0.0000    0.0000    0.9770
       37 H6     1s        -0.0003   -0.0002    0.0844    0.1459    0.1553    0.1248    0.1973    0.0000    0.0000    0.0404
       38 H6     *s         0.0016    0.0015    0.0178    0.0659    0.1120    0.1082    0.1969    0.0000    0.0000    0.9770
 
          Orbital           11        12        13        14        15    
          Energy            0.1403    0.1576    0.2441    0.3324    0.4804
          Occ. No.          0.0000    0.0000    0.0000    0.0000    0.0000
 
        1 C1     1s        -0.0000    0.1143    0.0000   -0.0713   -0.0203
        2 C1     2s         0.0000   -0.1608    0.0000    0.0334   -0.1904
        3 C1     *s         0.0000   -1.8282   -0.0000    2.9674   -0.2874
        4 C1     2px        0.0127    0.1162   -0.0137    0.1986   -0.5604
        5 C1     *px        0.0296    0.1041   -0.0691    2.8425    1.0619
        6 C1     2py        0.3044   -0.0049   -0.3284   -0.0083    0.0234
        7 C1     *py        0.7091   -0.0044   -1.6546   -0.1188   -0.0444
        8 C1     2pz        0.0000    0.0000   -0.0000    0.0000    0.0000
        9 C1     *pz        0.0000    0.0000   -0.0000   -0.0000   -0.0000
       10 C1     *200       0.0011    0.0052    0.0008   -0.0113   -0.0443
       11 C1     *110       0.0263   -0.0003    0.0189    0.0022    0.0055
       12 C1     *101      -0.0000    0.0000   -0.0000    0.0000    0.0000
       13 C1     *020      -0.0011    0.0011   -0.0008    0.0149    0.0214
       14 C1     *011      -0.0000    0.0000   -0.0000    0.0000    0.0000
       15 C1     *002      -0.0000    0.0055   -0.0000   -0.0059    0.0022
       16 C2     1s         0.0000   -0.1143    0.0000    0.0713   -0.0203
       17 C2     2s        -0.0000    0.1608    0.0000   -0.0334   -0.1904
       18 C2     *s        -0.0000    1.8282   -0.0000   -2.9674   -0.2874
       19 C2     2px        0.0127    0.1162    0.0137    0.1986    0.5604
       20 C2     *px        0.0296    0.1041    0.0691    2.8425   -1.0619
       21 C2     2py        0.3044   -0.0049    0.3284   -0.0083   -0.0234
       22 C2     *py        0.7091   -0.0044    1.6546   -0.1188    0.0444
       23 C2     2pz       -0.0000    0.0000   -0.0000    0.0000   -0.0000
       24 C2     *pz       -0.0000    0.0000   -0.0000   -0.0000    0.0000
       25 C2     *200      -0.0011   -0.0052    0.0008    0.0113   -0.0443
       26 C2     *110      -0.0263    0.0003    0.0189   -0.0022    0.0055
       27 C2     *101      -0.0000   -0.0000   -0.0000   -0.0000    0.0000
       28 C2     *020       0.0011   -0.0011   -0.0008   -0.0149    0.0214
       29 C2     *011       0.0000    0.0000   -0.0000    0.0000   -0.0000
       30 C2     *002       0.0000   -0.0055   -0.0000    0.0059    0.0022
       31 H3     1s         0.0770    0.0524    0.0183    0.0837    0.0683
       32 H3     *s         0.9993    0.9972   -1.4821    0.5513    0.1260
       33 H4     1s        -0.0770    0.0524   -0.0183    0.0837    0.0683
       34 H4     *s        -0.9993    0.9972    1.4821    0.5513    0.1260
       35 H5     1s         0.0770   -0.0524   -0.0183   -0.0837    0.0683
       36 H5     *s         0.9993   -0.9972    1.4821   -0.5513    0.1260
       37 H6     1s        -0.0770   -0.0524    0.0183   -0.0837    0.0683
       38 H6     *s        -0.9993   -0.9972   -1.4821   -0.5513    0.1260
--
 
 
++    Molecular charges:
      ------------------
 
      Mulliken charges per centre and basis function type
      ---------------------------------------------------
 
                C1      C2      H3      H4      H5      H6    
      1s       1.9917  1.9917  0.5293  0.5293  0.5293  0.5293
      2s       0.7051  0.7051  0.0000  0.0000  0.0000  0.0000
      2px      0.7693  0.7693  0.0000  0.0000  0.0000  0.0000
      2pz      0.5503  0.5503  0.0000  0.0000  0.0000  0.0000
      2py      0.7310  0.7310  0.0000  0.0000  0.0000  0.0000
      *s       0.5748  0.5748  0.3280  0.3280  0.3280  0.3280
      *px      0.2234  0.2234  0.0000  0.0000  0.0000  0.0000
      *pz      0.4450  0.4450  0.0000  0.0000  0.0000  0.0000
      *py      0.2843  0.2843  0.0000  0.0000  0.0000  0.0000
      *200     0.0041  0.0041  0.0000  0.0000  0.0000  0.0000
      *110     0.0152  0.0152  0.0000  0.0000  0.0000  0.0000
      *101     0.0046  0.0046  0.0000  0.0000  0.0000  0.0000
      *020     0.0124  0.0124  0.0000  0.0000  0.0000  0.0000
      *011     0.0000  0.0000  0.0000  0.0000  0.0000  0.0000
      *002    -0.0259 -0.0259  0.0000  0.0000  0.0000  0.0000
      Total    6.2855  6.2855  0.8573  0.8573  0.8573  0.8573
 
      N-E     -0.2855 -0.2855  0.1427  0.1427  0.1427  0.1427
 
      Total electronic charge=   16.000000
 
      Total            charge=   -0.000000
--
 
 
++    Molecular properties:
      ---------------------
 
      Charge (e):
                      =   -0.0000
      Dipole Moment (debye):
      Origin of the operator (angstrom)=   -1.3178    0.7205    0.0000
                   X= -2.2677E-11               Y=  7.2071E-13               Z= -1.6199E-12           Total=  2.2746E-11
      Quadrupole Moment (debye*angstrom):
      Origin of the operator (angstrom)=   -1.3178    0.7205    0.0000
                  XX= -1.1998E+01              XY= -5.0266E-03              XZ=  6.1624E-12              YY= -1.2118E+01
                  YZ=  2.0449E-12              ZZ= -1.5031E+01
      In traceless form (debye*angstrom)
                  XX=  1.5769E+00              XY= -7.5399E-03              XZ=  9.2435E-12              YY=  1.3968E+00
                  YZ=  3.0674E-12              ZZ= -2.9736E+00
--
 
 
      Input file to MOLDEN was generated!
 
 ###############################################################################
 ###############################################################################
 ###                                                                         ###
 ###                                                                         ###
 ###    WARNING: RunFile label nBas                                          ###
 ###    was used       78 times                                              ###
 ###                                                                         ###
 ###                                                                         ###
 ###############################################################################
 ###############################################################################
--- Stop Module: last_energy at Wed Jul  8 10:10:38 2026 /rc=_RC_ALL_IS_WELL_ ---
*** files: 01_Ethylene_Geom_Hess_DFT.scf.molden 01_Ethylene_Geom_Hess_DFT.ScfOrb xmldump
    saved to directory /vscratch/grp-cyberwksp21/sbakenhaster/wed_7_8/openmolcas_pyspawn/Tutorials_OpenMolcas/01_Geometry_Hessian_DFT
--- Module last_energy spent 4 seconds ---

>>> END DO

*** symbolic link created: INPORB -> 01_Ethylene_Geom_Hess_DFT.ScfOrb
--- Start Module: mckinley at Wed Jul  8 10:10:38 2026 ---
 
()()()()()()()()()()()()()()()()()()()()()()()()()()()()()()()()()()()()()()()()()()()()()()()()()()

                                             &MCKINLEY

                       only a single process is used, running in SERIAL mode
                       available to each process: 2.0 GB of memory, 1 thread?
                                            pid: 454963
()()()()()()()()()()()()()()()()()()()()()()()()()()()()()()()()()()()()()()()()()()()()()()()()()()
 
--- Stop Module: mckinley at Wed Jul  8 10:10:39 2026 /rc=_RC_INVOKED_OTHER_MODULE_ ---
*** files: xmldump
    saved to directory /vscratch/grp-cyberwksp21/sbakenhaster/wed_7_8/openmolcas_pyspawn/Tutorials_OpenMolcas/01_Geometry_Hessian_DFT

*** symbolic link created: INPORB -> 01_Ethylene_Geom_Hess_DFT.ScfOrb
--- Start Module: slapaf at Wed Jul  8 10:10:39 2026 ---
 
()()()()()()()()()()()()()()()()()()()()()()()()()()()()()()()()()()()()()()()()()()()()()()()()()()

                                              &SLAPAF

                       only a single process is used, running in SERIAL mode
                       available to each process: 2.0 GB of memory, 1 thread?
                                            pid: 454966
()()()()()()()()()()()()()()()()()()()()()()()()()()()()()()()()()()()()()()()()()()()()()()()()()()
 
 
 
++       Slapaf input parameters:
         ------------------------
 
 Maximum number of iterations:                 0
 Convergence test a la Schlegel.
 Convergence criterion on gradient/para.<=: 3.0E-04
[...]
 Temperature =   323.15 kelvin, Pressure =   1.00 atm
 -----------------------------------------------------
 Molecular Partition Function and Molar Entropy:
                        q/V (M**-3)    S(kcal/mol*K)
 Electronic            1.000000E+00        0.000
 Translational         5.123555E+27       36.327
 Rotational            2.951135E+03       18.858
 Vibrational           1.955099E-22        0.728
 TOTAL                 2.956168E+09       55.913
 
 Thermal contributions to INTERNAL ENERGY:
 Electronic           0.000 kcal/mol      0.000000 au.
 Translational        0.963 kcal/mol      0.001535 au.
 Rotational           0.963 kcal/mol      0.001535 au.
 Vibrational         32.335 kcal/mol      0.051529 au.
 TOTAL               34.261 kcal/mol      0.054599 au.
 
 Thermal contributions to
 ENTHALPY            34.903 kcal/mol      0.055622 au.
 GIBBS FREE ENERGY   16.835 kcal/mol      0.026828 au.
 
 Sum of energy and thermal contributions
 INTERNAL ENERGY                        -78.532859 au.
 ENTHALPY                               -78.531836 au.
 GIBBS FREE ENERGY                      -78.560629 au.
 -----------------------------------------------------
 
 *****************************************************
 Temperature =   373.15 kelvin, Pressure =   1.00 atm
 -----------------------------------------------------
 Molecular Partition Function and Molar Entropy:
                        q/V (M**-3)    S(kcal/mol*K)
 Electronic            1.000000E+00        0.000
 Translational         6.357558E+27       37.042
 Rotational            3.661913E+03       19.287
 Vibrational           1.690112E-19        1.193
 TOTAL                 3.934720E+12       57.522
 
 Thermal contributions to INTERNAL ENERGY:
 Electronic           0.000 kcal/mol      0.000000 au.
 Translational        1.112 kcal/mol      0.001773 au.
 Rotational           1.112 kcal/mol      0.001773 au.
 Vibrational         32.497 kcal/mol      0.051788 au.
 TOTAL               34.722 kcal/mol      0.055333 au.
 
 Thermal contributions to
 ENTHALPY            35.463 kcal/mol      0.056514 au.
 GIBBS FREE ENERGY   13.999 kcal/mol      0.022309 au.
 
 Sum of energy and thermal contributions
 INTERNAL ENERGY                        -78.532125 au.
 ENTHALPY                               -78.530943 au.
 GIBBS FREE ENERGY                      -78.565149 au.
 -----------------------------------------------------
 
 *****************************************************
 Temperature =   473.15 kelvin, Pressure =   1.00 atm
 -----------------------------------------------------
 Molecular Partition Function and Molar Entropy:
                        q/V (M**-3)    S(kcal/mol*K)
 Electronic            1.000000E+00        0.000
 Translational         9.077441E+27       38.221
 Rotational            5.228548E+03       19.995
 Vibrational           1.890308E-15        2.363
 TOTAL                 8.971749E+16       60.580
 
 Thermal contributions to INTERNAL ENERGY:
 Electronic           0.000 kcal/mol      0.000000 au.
 Translational        1.410 kcal/mol      0.002248 au.
 Rotational           1.410 kcal/mol      0.002248 au.
 Vibrational         32.994 kcal/mol      0.052580 au.
 TOTAL               35.815 kcal/mol      0.057075 au.
 
 Thermal contributions to
 ENTHALPY            36.755 kcal/mol      0.058573 au.
 GIBBS FREE ENERGY    8.092 kcal/mol      0.012896 au.
 
 Sum of energy and thermal contributions
 INTERNAL ENERGY                        -78.530383 au.
 ENTHALPY                               -78.528884 au.
 GIBBS FREE ENERGY                      -78.574562 au.
 -----------------------------------------------------
--
 
++    Isotopic shifts:
      ----------------
 
 
 
 ****************************************
 *                                      *
 * Isotope shifted frequencies in cm-1  *
 *                                      *
 ****************************************
 
 
  Single substitutions:
  -----------------------
 
 Masses:
 =======
  13  12   1   1   1   1
 
 
 Frequencies:
 ============
                         1         2         3         4         5         6
 
            Freq.      i0.00     i0.00      0.00      0.00      0.00      0.00                                               
 
 
                         7         8         9        10        11        12
 
            Freq.     834.06    948.32    974.21   1069.78   1239.51   1392.37                                               
 
 
                        13        14        15        16        17        18
 
            Freq.    1491.33   1696.54   3148.13   3161.86   3213.98   3242.28                                               
 
 
 Masses:
 =======
  14  12   1   1   1   1
 
 
 Frequencies:
 ============
                         1         2         3         4         5         6
 
            Freq.      i0.00     i0.00     i0.00      0.00      0.00      0.00                                               
 
 
                         7         8         9        10        11        12
 
            Freq.     833.50    941.04    973.26   1069.78   1231.62   1386.00                                               
 
 
                        13        14        15        16        17        18
 
            Freq.    1488.29   1676.71   3144.29   3160.24   3205.06   3239.93                                               
 
 
 Masses:
 =======
  12  13   1   1   1   1
 
 
 Frequencies:
 ============
                         1         2         3         4         5         6
 
            Freq.      i0.00      0.00      0.00      0.00      0.00      0.00                                               
 
 
                         7         8         9        10        11        12
 
            Freq.     834.06    948.30    974.22   1069.78   1239.51   1392.37                                               
 
 
                        13        14        15        16        17        18
 
            Freq.    1491.32   1696.55   3148.14   3161.85   3213.96   3242.30                                               
 
 
 Masses:
 =======
  12  14   1   1   1   1
 
 
 Frequencies:
 ============
                         1         2         3         4         5         6
 
            Freq.      i0.00     i0.00     i0.00      0.00      0.00      0.00                                               
 
 
                         7         8         9        10        11        12
 
            Freq.     833.50    941.01    973.28   1069.78   1231.62   1386.01                                               
 
 
                        13        14        15        16        17        18
 
            Freq.    1488.28   1676.71   3144.31   3160.22   3205.03   3239.96                                               
 
 
 Masses:
 =======
  12  12   2   1   1   1
 
 
 Frequencies:
 ============
                         1         2         3         4         5         6
 
            Freq.      i0.00     i0.00     i0.00     i0.00     i0.00      0.00                                               
 
 
                         7         8         9        10        11        12
 
            Freq.     740.20    826.45    964.68   1039.47   1148.86   1328.25                                               
 
 
                        13        14        15        16        17        18
 
            Freq.    1453.29   1691.41   2357.86   3157.70   3198.46   3236.88                                               
 
 
 Masses:
 =======
  12  12   3   1   1   1
 
 
 Frequencies:
 ============
                         1         2         3         4         5         6
 
            Freq.      i0.00     i0.00     i0.00     i0.00     i0.00      0.00                                               
 
 
                         7         8         9        10        11        12
 
            Freq.     671.61    764.31    964.40   1036.55   1101.88   1315.76                                               
 
 
                        13        14        15        16        17        18
 
            Freq.    1441.76   1659.81   2031.84   3157.67   3198.03   3236.77                                               
 
 
 Masses:
 =======
  12  12   1   2   1   1
 
 
 Frequencies:
 ============
                         1         2         3         4         5         6
 
            Freq.      i0.00     i0.00     i0.00     i0.00      0.00      0.00                                               
 
 
                         7         8         9        10        11        12
 
            Freq.     740.46    826.51    964.70   1039.38   1147.16   1329.82                                               
 
 
                        13        14        15        16        17        18
 
            Freq.    1453.23   1691.91   2358.79   3158.03   3195.47   3237.28                                               
 
 
 Masses:
 =======
  12  12   1   3   1   1
 
 
 Frequencies:
 ============
                         1         2         3         4         5         6
 
            Freq.      i0.00     i0.00     i0.00      0.00      0.00      0.00                                               
 
 
                         7         8         9        10        11        12
 
            Freq.     671.92    764.37    964.42   1036.45   1100.02   1317.27                                               
 
 
                        13        14        15        16        17        18
 
            Freq.    1441.98   1661.20   2031.46   3158.00   3195.03   3237.19                                               
 
 
 Masses:
 =======
  12  12   1   1   2   1
 
 
 Frequencies:
 ============
                         1         2         3         4         5         6
 
            Freq.      i0.00     i0.00      0.00      0.00      0.00      0.00                                               
 
 
                         7         8         9        10        11        12
 
            Freq.     740.14    826.48    964.75   1039.37   1147.62   1330.12                                               
 
 
                        13        14        15        16        17        18
 
            Freq.    1453.09   1691.70   2358.75   3158.00   3195.59   3237.35                                               
 
 
 Masses:
 =======
  12  12   1   1   3   1
 
 
 Frequencies:
 ============
                         1         2         3         4         5         6
 
            Freq.      i0.00      0.00      0.00      0.00      0.00      0.00                                               
 
 
                         7         8         9        10        11        12
 
            Freq.     671.50    764.35    964.47   1036.44   1100.73   1317.51                                               
 
 
                        13        14        15        16        17        18
 
            Freq.    1441.80   1660.94   2031.49   3157.97   3195.16   3237.26                                               
 
 
 Masses:
 =======
  12  12   1   1   1   2
 
 
 Frequencies:
 ============
                         1         2         3         4         5         6
 
            Freq.      i0.00     i0.00     i0.00      0.00      0.00      0.00                                               
 
 
                         7         8         9        10        11        12
 
            Freq.     740.51    826.42    964.73   1039.46   1148.41   1327.89                                               
 
 
                        13        14        15        16        17        18
 
            Freq.    1453.50   1691.59   2357.93   3157.67   3198.32   3236.89                                               
 
 
 Masses:
 =======
  12  12   1   1   1   3
 
 
 Frequencies:
 ============
                         1         2         3         4         5         6
 
            Freq.      i0.00     i0.00     i0.00      0.00      0.00      0.00                                               
 
 
                         7         8         9        10        11        12
 
            Freq.     672.02    764.28    964.45   1036.54   1101.18   1315.44                                               
 
 
                        13        14        15        16        17        18
 
            Freq.    1442.04   1659.98   2031.88   3157.64   3197.89   3236.79                                               
 
 
 
  Full substitutions:
  -----------------------
 
 Masses:
 =======
  12  12   2   2   2   2
 
 
 Frequencies:
 ============
                         1         2         3         4         5         6
 
            Freq.      i0.00     i0.00     i0.00      0.00      0.00      0.00                                               
 
 
                         7         8         9        10        11        12
 
            Freq.     600.03    738.46    756.74    790.73   1015.42   1017.77                                               
 
 
                        13        14        15        16        17        18
 
            Freq.    1107.09   1599.23   2276.42   2346.08   2402.40   2417.23                                               
 
 
 Masses:
 =======
  12  12   3   3   3   3
 
 
 Frequencies:
 ============
                         1         2         3         4         5         6
 
            Freq.      i0.00     i0.00     i0.00      0.00      0.00      0.00                                               
 
 
                         7         8         9        10        11        12
 
            Freq.     496.59    618.40    640.07    727.53    833.14    907.19                                               
 
 
                        13        14        15        16        17        18
 
            Freq.     939.60   1477.80   1899.84   2066.74   2067.88   2068.78                                               
 
 
 Masses:
 =======
  13  13   1   1   1   1
 
 
 Frequencies:
 ============
                         1         2         3         4         5         6
 
            Freq.      i0.00     i0.00     i0.00      0.00      0.00      0.00                                               
 
 
                         7         8         9        10        11        12
 
            Freq.     833.48    942.19    970.77   1069.78   1230.39   1385.73                                               
 
 
                        13        14        15        16        17        18
 
            Freq.    1488.56   1672.18   3146.36   3157.11   3209.13   3233.91                                               
 
 
 Masses:
 =======
  14  14   1   1   1   1
 
 
 Frequencies:
 ============
                         1         2         3         4         5         6
 
            Freq.      i0.00     i0.00     i0.00      0.00      0.00      0.00                                               
 
 
                         7         8         9        10        11        12
 
            Freq.     832.44    930.36    966.11   1069.78   1214.39   1370.49                                               
 
 
                        13        14        15        16        17        18
 
            Freq.    1483.44   1632.67   3142.05   3150.59   3198.12   3222.38                                               
 
 
--
 
++ Principal components of the normal modes
   ----------------------------------------
 
   (Only contributions larger than 0.50 times the maximum are printed)
 
 
      Mode      1
        Frequency:          834.67 cm-1
      ---------------------------------
        Angle C1 C2 H5           1.0000
        Angle C2 C1 H3           1.0000
        Angle C1 C2 H6          -0.9992
        Angle C2 C1 H4          -0.9992
      ---------------------------------
 
      Mode      2
        Frequency:          955.87 cm-1
      ---------------------------------
        Dihedral H4 C1 C2 H6     1.0000
        Dihedral H3 C1 C2 H5    -1.0000
        Outofp   H6 C1 H5 C2    -0.6802
        Outofp   H5 C1 H6 C2     0.6802
        Outofp   H3 C2 H4 C1     0.6787
        Outofp   H4 C2 H3 C1    -0.6787
      ---------------------------------
 
      Mode      3
        Frequency:          976.20 cm-1
      ---------------------------------
        Dihedral H3 C1 C2 H6     1.0000
        Dihedral H4 C1 C2 H5    -0.9988
        Outofp   H3 C2 H4 C1    -0.6800
        Outofp   H4 C2 H3 C1     0.6800
        Outofp   H6 C1 H5 C2    -0.6781
        Outofp   H5 C1 H6 C2     0.6781
      ---------------------------------
 
      Mode      4
        Frequency:         1069.78 cm-1
      ---------------------------------
        Dihedral H4 C1 C2 H5    -1.0000
        Dihedral H4 C1 C2 H6    -0.9991
        Dihedral H3 C1 C2 H5    -0.9991
        Dihedral H3 C1 C2 H6    -0.9982
      ---------------------------------
 
      Mode      5
        Frequency:         1248.55 cm-1
      ---------------------------------
        Angle C2 C1 H4          -1.0000
        Angle C1 C2 H5          -0.9997
        Angle C1 C2 H6           0.9920
        Angle C2 C1 H3           0.9918
      ---------------------------------
 
      Mode      6
        Frequency:         1398.25 cm-1
      ---------------------------------
        Angle H5 C2 H6          -1.0000
        Angle H3 C1 H4          -0.9994
        Angle C1 C2 H6           0.6396
        Angle C2 C1 H3           0.6360
        Angle C2 C1 H4           0.6225
        Angle C1 C2 H5           0.6197
        Bond C2 C1               0.5508
      ---------------------------------
 
      Mode      7
        Frequency:         1494.48 cm-1
      ---------------------------------
        Angle H3 C1 H4           1.0000
        Angle H5 C2 H6          -0.9998
        Angle C2 C1 H3          -0.6298
        Angle C1 C2 H5           0.6296
        Angle C2 C1 H4          -0.6296
        Angle C1 C2 H6           0.6294
      ---------------------------------
 
      Mode      8
        Frequency:         1720.74 cm-1
      ---------------------------------
        Bond C2 C1               1.0000
        Angle H3 C1 H4           0.9493
        Angle H5 C2 H6           0.9492
        Angle C1 C2 H5          -0.6008
        Angle C2 C1 H4          -0.5986
        Angle C2 C1 H3          -0.5969
        Angle C1 C2 H6          -0.5945
      ---------------------------------
 
      Mode      9
        Frequency:         3151.41 cm-1
      ---------------------------------
        Bond H3 C1              -1.0000
        Bond H6 C2               0.9959
        Bond H4 C1              -0.9935
        Bond H5 C2               0.9931
      ---------------------------------
 
      Mode     10
        Frequency:         3165.13 cm-1
      ---------------------------------
        Bond H3 C1               1.0000
        Bond H6 C2               0.9998
        Bond H5 C2               0.9363
        Bond H4 C1               0.9315
      ---------------------------------
 
      Mode     11
        Frequency:         3222.11 cm-1
      ---------------------------------
        Bond H5 C2              -1.0000
        Bond H4 C1              -0.9996
        Bond H6 C2               0.9398
        Bond H3 C1               0.9363
      ---------------------------------
 
      Mode     12
        Frequency:         3247.37 cm-1
      ---------------------------------
        Bond H4 C1               1.0000
        Bond H5 C2              -0.9956
        Bond H6 C2               0.9938
        Bond H3 C1              -0.9932
      ---------------------------------
--
 
--- Stop Module: slapaf at Wed Jul  8 10:13:01 2026 /rc=_RC_ALL_IS_WELL_ ---
*** files: 01_Ethylene_Geom_Hess_DFT.freq.molden 01_Ethylene_Geom_Hess_DFT.slapaf.h5 xmldump
    saved to directory /vscratch/grp-cyberwksp21/sbakenhaster/wed_7_8/openmolcas_pyspawn/Tutorials_OpenMolcas/01_Geometry_Hessian_DFT

>>> END DO

>>> EXPORT MOLCAS_TRAP = YES

>>> EXPORT MOLCAS_MAXITER = 900

.##################.
.# Happy landing! #.
.##################.

    Timing: Wall=161.52 User=81.09 System=23.63
