[Molden Format]
[N_Atoms]
                     6
[Atoms] (AU)
C1          1      6          -3.74672172      1.41399535     -0.00000004
C2          2      6          -1.23373274      1.30898662      0.00000004
H3          3      1          -4.90344861     -0.28452502     -0.00436342
H4          4      1          -4.75771451      3.20309608      0.00436326
H5          5      1          -0.22273996     -0.48011412      0.00436342
H6          6      1          -0.07700585      3.00750698     -0.00436326
[Charge] (Mulliken)
 -0.285413447907203     
 -0.285510765304281     
  0.142726361295092     
  0.142726414217601     
  0.142735745308194     
  0.142735692390517     
[GTO] (AU)
   1
   s   6
  3.047524880E+03  1.834737132E-03
  4.573695180E+02  1.403732281E-02
  1.039486850E+02  6.884262227E-02
  2.921015530E+01  2.321844432E-01
  9.286662960E+00  4.679413484E-01
  3.163926960E+00  3.623119853E-01
   s   3
  7.868272350E+00 -1.193324198E-01
  1.881288540E+00 -1.608541517E-01
  5.442492580E-01  1.143456438E+00
   s   1
  1.687144782E-01  1.000000000E+00
   p   3
  7.868272350E+00  6.899906659E-02
  1.881288540E+00  3.164239610E-01
  5.442492580E-01  7.443082909E-01
   p   1
  1.687144782E-01  1.000000000E+00
   d   1
  8.000000000E-01  1.000000000E+00
 
   2
   s   6
  3.047524880E+03  1.834737132E-03
  4.573695180E+02  1.403732281E-02
  1.039486850E+02  6.884262227E-02
  2.921015530E+01  2.321844432E-01
  9.286662960E+00  4.679413484E-01
  3.163926960E+00  3.623119853E-01
   s   3
  7.868272350E+00 -1.193324198E-01
  1.881288540E+00 -1.608541517E-01
  5.442492580E-01  1.143456438E+00
   s   1
  1.687144782E-01  1.000000000E+00
   p   3
  7.868272350E+00  6.899906659E-02
  1.881288540E+00  3.164239610E-01
  5.442492580E-01  7.443082909E-01
   p   1
  1.687144782E-01  1.000000000E+00
   d   1
  8.000000000E-01  1.000000000E+00
 
   3
   s   3
  1.873113696E+01  3.349460434E-02
  2.825394365E+00  2.347269535E-01
  6.401216923E-01  8.137573261E-01
   s   1
  1.612777588E-01  1.000000000E+00
 
   4
   s   3
  1.873113696E+01  3.349460434E-02
  2.825394365E+00  2.347269535E-01
  6.401216923E-01  8.137573261E-01
   s   1
  1.612777588E-01  1.000000000E+00
 
   5
   s   3
  1.873113696E+01  3.349460434E-02
  2.825394365E+00  2.347269535E-01
  6.401216923E-01  8.137573261E-01
   s   1
  1.612777588E-01  1.000000000E+00
 
   6
   s   3
  1.873113696E+01  3.349460434E-02
  2.825394365E+00  2.347269535E-01
  6.401216923E-01  8.137573261E-01
   s   1
  1.612777588E-01  1.000000000E+00
 
[MO]
Sym=     1a  
Ene=   -10.1840
Spin= Alpha
Occup=    2.00000
   1         0.69354809
   2         0.03398225
   3        -0.00588113
   4        -0.00030286
   5         0.00001266
   6        -0.00000000
   7         0.00073844
   8        -0.00003086
   9         0.00000000
  10        -0.00661882
  11        -0.00675550
  12        -0.00692767
  13        -0.00000661
  14         0.00000004
  15         0.00000084
  16         0.70991921
  17         0.03480243
  18        -0.00617097
  19         0.00029564
  20        -0.00001235
  21        -0.00000000
  22        -0.00069132
  23         0.00002889
  24         0.00000000
  25        -0.00676519
  26        -0.00690824
  27        -0.00708668
  28        -0.00000691
  29        -0.00000004
  30        -0.00000085
  31        -0.00029042
  32         0.00154353
  33        -0.00029042
  34         0.00154353
  35        -0.00029474
  36         0.00157959
  37        -0.00029474
  38         0.00157959
Sym=     2a  
Ene=   -10.1830
Spin= Alpha
Occup=    2.00000
   1        -0.71026555
   2        -0.03558466
   3         0.01249863
   4        -0.00030932
   5         0.00001293
   6         0.00000000
   7         0.00201253
   8        -0.00008410
   9        -0.00000000
  10         0.00635732
  11         0.00663341
  12         0.00690426
  13         0.00001334
  14        -0.00000001
  15        -0.00000034
  16         0.69390267
  17         0.03478247
  18        -0.01235814
  19        -0.00031625
  20         0.00001321
  21        -0.00000000
  22         0.00202917
  23        -0.00008479
  24         0.00000000
  25        -0.00620120
  26        -0.00647402
  27        -0.00674079
  28        -0.00001319
  29        -0.00000001
  30        -0.00000032
  31         0.00018818
  32        -0.00156416
  33         0.00018818
  34        -0.00156416
  35        -0.00018136
  36         0.00152776
  37        -0.00018136
  38         0.00152776
Sym=     3a  
Ene=    -0.7547
Spin= Alpha
Occup=    2.00000
   1        -0.16039906
   2         0.31005629
   3         0.23279847
   4         0.10000821
   5        -0.00417899
   6        -0.00000001
   7         0.00433881
   8        -0.00018129
   9        -0.00000001
  10         0.00797312
  11        -0.00011752
  12        -0.01672617
  13        -0.00039107
  14         0.00000194
  15         0.00004651
  16        -0.16040455
  17         0.31007009
  18         0.23281085
  19        -0.10000298
  20         0.00417877
  21        -0.00000002
  22        -0.00433720
  23         0.00018122
  24        -0.00000001
  25         0.00797245
  26        -0.00011726
  27        -0.01672696
  28        -0.00039102
  29        -0.00000194
  30        -0.00004652
  31         0.08435951
  32         0.01784241
  33         0.08435951
  34         0.01784239
  35         0.08436485
  36         0.01784353
  37         0.08436486
  38         0.01784354
Sym=     4a  
Ene=    -0.5773
Spin= Alpha
Occup=    2.00000
   1         0.12309479
   2        -0.24748582
   3        -0.23092381
   4         0.17188563
   5        -0.00718251
   6         0.00000001
   7         0.06977078
   8        -0.00291547
   9         0.00000001
  10         0.00812811
  11        -0.01344718
  12         0.01134250
  13        -0.00104284
  14        -0.00000301
  15        -0.00007203
  16        -0.12308829
  17         0.24747580
  18         0.23091624
  19         0.17190783
  20        -0.00718343
  21        -0.00000000
  22         0.06977747
  23        -0.00291575
  24        -0.00000001
  25        -0.00812878
  26         0.01344772
  27        -0.01134216
  28         0.00104289
  29        -0.00000301
  30        -0.00007203
  31        -0.14589510
  32        -0.06587035
  33        -0.14589518
  34        -0.06587039
  35         0.14589644
  36         0.06587126
  37         0.14589636
  38         0.06587122
Sym=     5a  
Ene=    -0.4647
Spin= Alpha
Occup=    2.00000
   1         0.00000001
   2        -0.00000003
   3        -0.00000002
   4         0.01382106
   5         0.33075541
   6         0.00045013
   7         0.00505358
   8         0.12093812
   9         0.00012631
  10        -0.00044107
  11         0.00044107
  12         0.00000000
  13        -0.00608366
  14        -0.00005043
  15         0.00000210
  16        -0.00000001
  17         0.00000003
  18         0.00000002
  19         0.01382210
  20         0.33078033
  21        -0.00045022
  22         0.00505398
  23         0.12094761
  24        -0.00012634
  25         0.00044125
  26        -0.00044125
  27        -0.00000000
  28         0.00608611
  29        -0.00005043
  30         0.00000210
  31        -0.15526891
  32        -0.11199346
  33         0.15526884
  34         0.11199341
  35        -0.15528211
  36        -0.11200360
  37         0.15528218
  38         0.11200365
Sym=     6a  
Ene=    -0.4164
Spin= Alpha
Occup=    2.00000
   1         0.01467788
   2        -0.03266315
   3        -0.00325323
   4        -0.41377098
   5         0.01729023
   6        -0.00000001
   7        -0.14143605
   8         0.00591014
   9        -0.00000000
  10        -0.00539649
  11         0.01900654
  12         0.00049167
  13         0.00117949
  14         0.00000195
  15         0.00004657
  16         0.01468328
  17        -0.03267453
  18        -0.00326935
  19         0.41377001
  20        -0.01729019
  21         0.00000002
  22         0.14143811
  23        -0.00591022
  24         0.00000001
  25        -0.00539562
  26         0.01900597
  27         0.00049196
  28         0.00117943
  29        -0.00000195
  30        -0.00004657
  31         0.12484496
  32         0.10816955
  33         0.12484534
  34         0.10816989
  35         0.12483942
  36         0.10816556
  37         0.12483904
  38         0.10816522
Sym=     7a  
Ene=    -0.3532
Spin= Alpha
Occup=    2.00000
   1         0.00000003
   2        -0.00000006
   3        -0.00000003
   4        -0.01292289
   5        -0.30925265
   6        -0.00228663
   7        -0.00487565
   8        -0.11667685
   9        -0.00116458
  10         0.00220947
  11        -0.00220945
  12         0.00000000
  13         0.03047450
  14        -0.00003351
  15         0.00000140
  16         0.00000003
  17        -0.00000006
  18        -0.00000003
  19         0.01292204
  20         0.30923245
  21        -0.00228666
  22         0.00487521
  23         0.11666615
  24        -0.00116461
  25         0.00220951
  26        -0.00220949
  27         0.00000000
  28         0.03047504
  29         0.00003351
  30        -0.00000140
  31         0.19728205
  32         0.19694318
  33        -0.19728181
  34        -0.19694294
  35        -0.19727161
  36        -0.19693459
  37         0.19727184
  38         0.19693483
Sym=     8a  
Ene=    -0.2666
Spin= Alpha
Occup=    2.00000
   1        -0.00000000
   2         0.00000001
   3        -0.00000001
   4        -0.00008481
   5        -0.00202959
   6         0.40142153
   7        -0.00004965
   8        -0.00118799
   9         0.28454011
  10         0.00001299
  11        -0.00001298
  12        -0.00000000
  13         0.00017912
  14         0.01609666
  15        -0.00067262
  16        -0.00000000
  17         0.00000001
  18        -0.00000001
  19         0.00008478
  20         0.00202957
  21         0.40143568
  22         0.00004963
  23         0.00118797
  24         0.28455073
  25         0.00001299
  26        -0.00001298
  27        -0.00000001
  28         0.00017912
  29        -0.01609597
  30         0.00067259
  31         0.00094084
  32         0.00114353
  33        -0.00094083
  34        -0.00114352
  35        -0.00094080
  36        -0.00114349
  37         0.00094081
  38         0.00114351
Sym=     9a  
Ene=     0.0188
Spin= Alpha
Occup=    0.00000
   1        -0.00000001
   2         0.00000000
   3         0.00000012
   4         0.00005428
   5         0.00129837
   6        -0.41898250
   7         0.00009090
   8         0.00217421
   9        -0.63209308
  10         0.00000908
  11        -0.00000909
  12         0.00000001
  13         0.00012531
  14         0.02503931
  15        -0.00104630
  16         0.00000001
  17        -0.00000000
  18        -0.00000012
  19         0.00005425
  20         0.00129839
  21         0.41897766
  22         0.00009086
  23         0.00217429
  24         0.63208164
  25        -0.00000908
  26         0.00000909
  27        -0.00000000
  28        -0.00012531
  29         0.02504128
  30        -0.00104639
  31         0.00058742
  32         0.00190880
  33        -0.00058744
  34        -0.00190887
  35         0.00058746
  36         0.00190896
  37        -0.00058744
  38        -0.00190889
Sym=    10a  
Ene=     0.1224
Spin= Alpha
Occup=    0.00000
   1         0.08175559
   2        -0.12702522
   3        -1.38063983
   4         0.18320867
   5        -0.00765553
   6         0.00000001
   7         0.59079214
   8        -0.02468669
   9         0.00000001
  10        -0.00440305
  11         0.01385095
  12         0.00350611
  13         0.00088231
  14        -0.00000121
  15        -0.00002888
  16         0.08176916
  17        -0.12704766
  18        -1.38084541
  19        -0.18322786
  20         0.00765633
  21        -0.00000000
  22        -0.59082157
  23         0.02468792
  24        -0.00000003
  25        -0.00440248
  26         0.01385224
  27         0.00350722
  28         0.00088234
  29         0.00000121
  30         0.00002887
  31         0.04038847
  32         0.97694418
  33         0.04038843
  34         0.97694397
  35         0.04039775
  36         0.97707210
  37         0.04039779
  38         0.97707232
Sym=    11a  
Ene=     0.1403
Spin= Alpha
Occup=    0.00000
   1        -0.00000009
   2         0.00000016
   3         0.00000104
   4         0.01271792
   5         0.30435624
   6         0.00158371
   7         0.02962839
   8         0.70905099
   9         0.00464767
  10         0.00190487
  11        -0.00190489
  12        -0.00000000
  13         0.02627339
  14        -0.00007379
  15         0.00000308
  16         0.00000009
  17        -0.00000016
  18        -0.00000104
  19         0.01271867
  20         0.30437428
  21        -0.00158375
  22         0.02963075
  23         0.70910744
  24        -0.00464772
  25        -0.00190485
  26         0.00190487
  27         0.00000000
  28        -0.02627316
  29        -0.00007379
  30         0.00000308
  31         0.07699536
  32         0.99922823
  33        -0.07699541
  34        -0.99922935
  35         0.07699689
  36         0.99928390
  37        -0.07699684
  38        -0.99928277
Sym=    12a  
Ene=     0.1576
Spin= Alpha
Occup=    0.00000
   1         0.11429742
   2        -0.16084629
   3        -1.82825725
   4         0.11623535
   5        -0.00485681
   6        -0.00000000
   7         0.10419494
   8        -0.00435337
   9        -0.00000003
  10         0.00906164
  11         0.00185233
  12         0.00958130
  13        -0.00034845
  14         0.00000190
  15         0.00004550
  16        -0.11428670
  17         0.16083374
  18         1.82806837
  19         0.11621641
  20        -0.00485602
  21         0.00000001
  22         0.10410997
  23        -0.00434981
  24         0.00000004
  25        -0.00906286
  26        -0.00185091
  27        -0.00958078
  28         0.00034858
  29         0.00000190
  30         0.00004550
  31         0.05241193
  32         0.99724569
  33         0.05241187
  34         0.99724451
  35        -0.05240829
  36        -0.99711421
  37        -0.05240835
  38        -0.99711538
Sym=    13a  
Ene=     0.2441
Spin= Alpha
Occup=    0.00000
   1         0.00000001
   2         0.00000001
   3        -0.00000064
   4        -0.01372174
   5        -0.32838291
   6        -0.00100504
   7        -0.06913962
   8        -1.65460623
   9        -0.00200760
  10         0.00136898
  11        -0.00136898
  12        -0.00000000
  13         0.01888164
  14        -0.00005093
  15         0.00000213
  16         0.00000001
  17         0.00000001
  18        -0.00000064
  19         0.01372136
  20         0.32837385
  21        -0.00100502
  22         0.06913801
  23         1.65456757
  24        -0.00200738
  25         0.00136915
  26        -0.00136914
  27        -0.00000000
  28         0.01888388
  29         0.00005093
  30        -0.00000213
  31         0.01834240
  32        -1.48213626
  33        -0.01834243
  34         1.48213705
  35        -0.01834574
  36         1.48209193
  37         0.01834571
  38        -1.48209114
Sym=    14a  
Ene=     0.3323
Spin= Alpha
Occup=    0.00000
   1        -0.07129533
   2         0.03339570
   3         2.96737969
   4         0.19864737
   5        -0.00830079
   6         0.00000000
   7         2.84246423
   8        -0.11877645
   9         0.00000011
  10        -0.01961106
  11         0.02584008
  12        -0.01014006
  13         0.00219689
  14         0.00000715
  15         0.00017114
  16         0.07129567
  17        -0.03339804
  18        -2.96737873
  19         0.19863641
  20        -0.00830033
  21         0.00000001
  22         2.84247636
  23        -0.11877696
  24         0.00000008
  25         0.01961366
  26        -0.02584195
  27         0.01013999
  28        -0.00219711
  29         0.00000715
  30         0.00017114
  31         0.08374681
  32         0.55134163
  33         0.08374663
  34         0.55134271
  35        -0.08375139
  36        -0.55133717
  37        -0.08375157
  38        -0.55133609
Sym=    15a  
Ene=     0.4803
Spin= Alpha
Occup=    0.00000
   1        -0.02033301
   2        -0.19041519
   3        -0.28738847
   4        -0.56039463
   5         0.02341651
   6         0.00000002
   7         1.06191732
   8        -0.04437343
   9         0.00000001
  10        -0.07668586
  11         0.03710615
  12         0.00377189
  13         0.00550017
  14         0.00000265
  15         0.00006331
  16        -0.02032980
  17        -0.19041731
  18        -0.28744950
  19         0.56041359
  20        -0.02341730
  21         0.00000005
  22        -1.06189629
  23         0.04437255
  24        -0.00000006
  25        -0.07668412
  26         0.03710639
  27         0.00377143
  28         0.00550010
  29        -0.00000265
  30        -0.00006331
  31         0.06829604
  32         0.12595530
  33         0.06829582
  34         0.12595620
  35         0.06829736
  36         0.12596152
  37         0.06829759
  38         0.12596062
Sym=    16a  
Ene=     0.5485
Spin= Alpha
Occup=    0.00000
   1        -0.00000000
   2        -0.00000007
   3         0.00000017
   4        -0.00008946
   5        -0.00214098
   6         0.72984783
   7         0.00007200
   8         0.00172463
   9        -0.64997480
  10         0.00000467
  11        -0.00000468
  12         0.00000000
  13         0.00006442
  14         0.05568021
  15        -0.00232667
  16        -0.00000000
  17        -0.00000007
  18         0.00000017
  19         0.00008943
  20         0.00214148
  21         0.72991252
  22        -0.00007199
  23        -0.00172547
  24        -0.65007668
  25         0.00000468
  26        -0.00000469
  27        -0.00000000
  28         0.00006450
  29        -0.05567889
  30         0.00232662
  31         0.00001018
  32        -0.00096599
  33        -0.00001023
  34         0.00096590
  35        -0.00001057
  36         0.00096580
  37         0.00001051
  38        -0.00096590
Sym=    17a  
Ene=     0.5686
Spin= Alpha
Occup=    0.00000
   1        -0.00000004
   2        -0.00000011
   3        -0.00000067
   4        -0.01699816
   5        -0.40679818
   6         0.00113720
   7         0.03221011
   8         0.77086762
   9         0.00142436
  10         0.00687068
  11        -0.00687084
  12         0.00000004
  13         0.09476649
  14         0.00003069
  15        -0.00000128
  16         0.00000004
  17         0.00000011
  18         0.00000066
  19        -0.01699833
  20        -0.40680203
  21        -0.00113640
  22         0.03221214
  23         0.77091618
  24        -0.00142512
  25        -0.00687080
  26         0.00687096
  27        -0.00000004
  28        -0.09476814
  29         0.00003063
  30        -0.00000128
  31         0.38423800
  32         0.06486250
  33        -0.38423859
  34        -0.06486289
  35         0.38423936
  36         0.06488857
  37        -0.38423878
  38        -0.06488818
Sym=    18a  
Ene=     0.6373
Spin= Alpha
Occup=    0.00000
   1        -0.00000000
   2        -0.00000004
   3         0.00000019
   4        -0.00003596
   5        -0.00085968
   6         0.78417440
   7         0.00000362
   8         0.00008386
   9        -1.13939856
  10        -0.00002931
  11         0.00002932
  12        -0.00000001
  13        -0.00040435
  14        -0.01982313
  15         0.00082834
  16         0.00000000
  17         0.00000004
  18        -0.00000019
  19        -0.00003590
  20        -0.00085949
  21        -0.78411020
  22         0.00000353
  23         0.00008361
  24         1.13934411
  25         0.00002932
  26        -0.00002932
  27         0.00000001
  28         0.00040436
  29        -0.01982929
  30         0.00082860
  31        -0.00096665
  32         0.00022916
  33         0.00096666
  34        -0.00022920
  35        -0.00096667
  36         0.00022922
  37         0.00096666
  38        -0.00022917
Sym=    19a  
Ene=     0.6552
Spin= Alpha
Occup=    0.00000
   1         0.03789930
   2         0.70892041
   3        -1.35110564
   4         0.03271106
   5        -0.00136699
   6         0.00000005
   7         0.33782704
   8        -0.01411619
   9        -0.00000004
  10         0.07737017
  11         0.14894415
  12        -0.05808947
  13         0.00345952
  14         0.00001819
  15         0.00043504
  16         0.03790716
  17         0.70892778
  18        -1.35120296
  19        -0.03266574
  20         0.00136510
  21         0.00000005
  22        -0.33784136
  23         0.01411679
  24        -0.00000006
  25         0.07738199
  26         0.14894948
  27        -0.05809783
  28         0.00345920
  29        -0.00001818
  30        -0.00043509
  31         0.42763233
  32         0.16016931
  33         0.42763237
  34         0.16016904
  35         0.42766387
  36         0.16017025
  37         0.42766383
  38         0.16017052
Sym=    20a  
Ene=     0.6990
Spin= Alpha
Occup=    0.00000
   1         0.08795984
   2        -0.03550044
   3        -0.41932379
   4        -0.63608784
   5         0.02657924
   6        -0.00000004
   7         0.73577518
   8        -0.03074425
   9         0.00000004
  10         0.16222097
  11         0.04316541
  12        -0.08914242
  13        -0.00575453
  14         0.00002211
  15         0.00052864
  16        -0.08795694
  17         0.03555168
  18         0.41921923
  19        -0.63608052
  20         0.02657893
  21        -0.00000000
  22         0.73573476
  23        -0.03074256
  24         0.00000001
  25        -0.16221915
  26        -0.04315256
  27         0.08913921
  28         0.00575507
  29         0.00002208
  30         0.00052861
  31         0.36296020
  32         0.10137887
  33         0.36295975
  34         0.10137800
  35        -0.36292319
  36        -0.10136710
  37        -0.36292364
  38        -0.10136798
Sym=    21a  
Ene=     0.8475
Spin= Alpha
Occup=    0.00000
   1        -0.00000005
   2         0.00000011
   3         0.00000036
   4        -0.02773372
   5        -0.66370145
   6        -0.00202236
   7         0.04753115
   8         1.13746519
   9         0.00429746
  10        -0.01215304
  11         0.01215294
  12         0.00000007
  13        -0.16762191
  14        -0.00007315
  15         0.00000305
  16         0.00000005
  17        -0.00000011
  18        -0.00000036
  19        -0.02774442
  20        -0.66395732
  21         0.00202296
  22         0.04756351
  23         1.13823976
  24        -0.00429868
  25         0.01215344
  26        -0.01215334
  27        -0.00000007
  28         0.16762740
  29        -0.00007319
  30         0.00000307
  31        -0.39409602
  32         1.12879967
  33         0.39409524
  34        -1.12879840
  35        -0.39417178
  36         1.12923787
  37         0.39417255
  38        -1.12923914
Sym=    22a  
Ene=     0.8722
Spin= Alpha
Occup=    0.00000
   1         0.00000000
   2        -0.00000031
   3        -0.00000017
   4         0.03684477
   5         0.88174434
   6         0.00208577
   7        -0.11187596
   8        -2.67735111
   9        -0.00421059
  10         0.00096805
  11        -0.00096805
  12        -0.00000002
  13         0.01335307
  14         0.00012593
  15        -0.00000526
  16         0.00000000
  17        -0.00000031
  18        -0.00000017
  19        -0.03683646
  20        -0.88154552
  21         0.00208518
  22         0.11186198
  23         2.67701652
  24        -0.00420933
  25         0.00096440
  26        -0.00096441
  27        -0.00000002
  28         0.01330283
  29        -0.00012590
  30         0.00000526
  31         0.25194042
  32        -1.50210618
  33        -0.25193997
  34         1.50210623
  35        -0.25182877
  36         1.50178130
  37         0.25182923
  38        -1.50178125
Sym=    23a  
Ene=     0.9317
Spin= Alpha
Occup=    0.00000
   1        -0.02432931
   2         0.37333481
   3        -0.16820595
   4        -0.61162527
   5         0.02555790
   6        -0.00000001
   7         1.42867195
   8        -0.05969957
   9         0.00000004
  10         0.10713074
  11        -0.11335620
  12         0.08091425
  13        -0.01065712
  14        -0.00001835
  15        -0.00043934
  16         0.02434071
  17        -0.37412557
  18         0.16969040
  19        -0.61187757
  20         0.02556845
  21        -0.00000003
  22         1.42906643
  23        -0.05971606
  24         0.00000006
  25        -0.10721132
  26         0.11339269
  27        -0.08097650
  28         0.01066278
  29        -0.00001837
  30        -0.00043972
  31        -0.48966376
  32         1.02502898
  33        -0.48966424
  34         1.02503046
  35         0.48998904
  36        -1.02575651
  37         0.48998855
  38        -1.02575502
Sym=    24a  
Ene=     0.9411
Spin= Alpha
Occup=    0.00000
   1        -0.01547769
   2         1.01562267
   3        -1.90399443
   4        -0.33322520
   5         0.01392460
   6         0.00000000
   7         0.51238551
   8        -0.02141206
   9         0.00000000
  10         0.10215463
  11        -0.04595677
  12         0.08178868
  13        -0.00715895
  14        -0.00002057
  15        -0.00049244
  16        -0.01545828
  17         1.01536047
  18        -1.90395943
  19         0.33274551
  20        -0.01390456
  21         0.00000003
  22        -0.51125206
  23         0.02136469
  24        -0.00000003
  25         0.10206981
  26        -0.04586770
  27         0.08172591
  28        -0.00715054
  29         0.00002056
  30         0.00049209
  31        -0.42369973
  32         0.93425909
  33        -0.42369981
  34         0.93426054
  35        -0.42332002
  36         0.93347902
  37        -0.42331994
  38         0.93347757
Sym=    25a  
Ene=     1.1057
Spin= Alpha
Occup=    0.00000
   1         0.03220010
   2         1.53513437
   3        -5.64298871
   4         0.21503132
   5        -0.00898553
   6         0.00000002
   7        -1.88804344
   8         0.07889495
   9        -0.00000009
  10        -0.02064789
  11         0.17959991
  12         0.03226211
  13         0.00967903
  14         0.00003728
  15         0.00089225
  16        -0.03220006
  17        -1.53511390
  18         5.64294607
  19         0.21503602
  20        -0.00898573
  21        -0.00000001
  22        -1.88805466
  23         0.07889542
  24        -0.00000004
  25         0.02065328
  26        -0.17959998
  27        -0.03225968
  28        -0.00967929
  29         0.00003728
  30         0.00089227
  31         0.10692140
  32         0.40331545
  33         0.10692136
  34         0.40331494
  35        -0.10692447
  36        -0.40329851
  37        -0.10692451
  38        -0.40329901
Sym=    26a  
Ene=     1.2158
Spin= Alpha
Occup=    0.00000
   1        -0.00000000
   2        -0.00000024
   3        -0.00000092
   4         0.00683102
   5         0.16348067
   6         0.00183590
   7        -0.12120106
   8        -2.90052529
   9        -0.00380593
  10        -0.01170632
  11         0.01170618
  12         0.00000008
  13        -0.16146054
  14        -0.00430422
  15         0.00017986
  16        -0.00000000
  17        -0.00000024
  18        -0.00000092
  19        -0.00683105
  20        -0.16348153
  21         0.00183587
  22         0.12120106
  23         2.90052529
  24        -0.00380595
  25        -0.01170622
  26         0.01170608
  27         0.00000008
  28        -0.16145919
  29         0.00430427
  30        -0.00017987
  31        -0.66871954
  32        -0.83494914
  33         0.66871981
  34         0.83495011
  35         0.66871556
  36         0.83495397
  37        -0.66871529
  38        -0.83495301
Sym=    27a  
Ene=     1.4627
Spin= Alpha
Occup=    0.00000
   1         0.00000000
   2         0.00000001
   3        -0.00000000
   4        -0.00006347
   5        -0.00151855
   6         0.17143141
   7         0.00109660
   8         0.02624311
   9        -0.03604357
  10         0.00015136
  11        -0.00015132
  12        -0.00000004
  13         0.00208714
  14        -0.61921338
  15         0.02587472
  16         0.00000000
  17         0.00000001
  18        -0.00000000
  19         0.00006345
  20         0.00151856
  21         0.17142729
  22        -0.00109659
  23        -0.02624309
  24        -0.03604582
  25         0.00015129
  26        -0.00015132
  27         0.00000004
  28         0.00208715
  29         0.61922199
  30        -0.02587508
  31         0.00556578
  32         0.00845139
  33        -0.00556579
  34        -0.00845139
  35        -0.00556576
  36        -0.00845140
  37         0.00556575
  38         0.00845140
Sym=    28a  
Ene=     1.5452
Spin= Alpha
Occup=    0.00000
   1        -0.00012583
   2        -0.00207716
   3         0.00753540
   4         0.00001809
   5        -0.00000075
   6        -0.00000000
   7         0.00065944
   8        -0.00002756
   9        -0.00000001
  10         0.00002280
  11        -0.00183750
  12         0.00174891
  13        -0.00008994
  14         0.02841156
  15         0.67992413
  16         0.00012583
  17         0.00207711
  18        -0.00753527
  19         0.00001808
  20        -0.00000075
  21         0.00000000
  22         0.00065950
  23        -0.00002756
  24         0.00000001
  25        -0.00002281
  26         0.00183766
  27        -0.00174906
  28         0.00008990
  29         0.02841260
  30         0.67994900
  31        -0.00088163
  32        -0.00126228
  33        -0.00088163
  34        -0.00126227
  35         0.00088160
  36         0.00126222
  37         0.00088160
  38         0.00126223
Sym=    29a  
Ene=     1.8328
Spin= Alpha
Occup=    0.00000
   1        -0.00078101
   2        -0.00489417
   3         0.01736923
   4        -0.00152634
   5         0.00006378
   6         0.00000001
   7        -0.00690288
   8         0.00028841