
                                 *****************
                                 * O   R   C   A *
                                 *****************

                                            #,                                       
                                            ###                                      
                                            ####                                     
                                            #####                                    
                                            ######                                   
                                           ########,                                 
                                     ,,################,,,,,                         
                               ,,#################################,,                 
                          ,,##########################################,,             
                       ,#########################################, ''#####,          
                    ,#############################################,,   '####,        
                  ,##################################################,,,,####,       
                ,###########''''           ''''###############################       
              ,#####''   ,,,,##########,,,,          '''####'''          '####       
            ,##' ,,,,###########################,,,                        '##       
           ' ,,###''''                  '''############,,,                           
         ,,##''                                '''############,,,,        ,,,,,,###''
      ,#''                                            '''#######################'''  
     '                                                          ''''####''''         
             ,#######,   #######,   ,#######,      ##                                
            ,#'     '#,  ##    ##  ,#'     '#,    #''#        ,####,   ,####,        
            ##       ##  ##   ,#'  ##            #'  '#       #'       #'  '#        
            ##       ##  #######   ##           ,######,      #####,   #    #        
            '#,     ,#'  ##    ##  '#,     ,#' ,#      #,     #,   #   #,  ,#        
             '#######'   ##     ##  '#######'  #'      '#     '####' # '####'        



                #########################################################
                #                        -***-                          #
                #          Department of theory and spectroscopy        #
                #                                                       #
                #                      Frank Neese                      #
                #                                                       #
                #     Directorship, Architecture, Infrastructure        #
                #                    SHARK, DRIVERS                     #
                #        Core code/Algorithms in most modules           #
                #                                                       #
                #        Max Planck Institute fuer Kohlenforschung      #
                #                Kaiser Wilhelm Platz 1                 #
                #                 D-45470 Muelheim/Ruhr                 #
                #                      Germany                          #
                #                                                       #
                #                  All rights reserved                  #
                #                        -***-                          #
                #########################################################


                         Program Version 6.0.1  -  RELEASE   -


 With contributions from (in alphabetic order):
[Max-Planck-Institut fuer Kohlenforschung]                               
  Daniel Aravena         : Magnetic Suceptibility                        
  Michael Atanasov       : Ab Initio Ligand Field Theory (pilot matlab implementation)
  Alexander A. Auer      : GIAO ZORA, VPT2 properties, NMR spectrum      
  Ute Becker             : All parallelization in ORCA, NUMFREQ, NUMCALC 
  Giovanni Bistoni       : ED, misc. LED, open-shell LED, HFLD           
  Martin Brehm           : Molecular dynamics                            
  Dmytro Bykov           : pre 5.0 version of the SCF Hessian            
  Marcos Casanova-Páez   : Triplet and SCS-CIS(D). UHF-(DLPNO)-IP/EA/STEOM-CCSD. UHF-CVS-IP/STEOM-CCSD   
  Vijay G. Chilkuri      : MRCI spin determinant printing, contributions to CSF-ICE 
  Pauline Colinet        : FMM embedding                                 
  Dipayan Datta          : RHF DLPNO-CCSD density                        
  Achintya Kumar Dutta   : EOM-CC, STEOM-CC                              
  Nicolas Foglia         : Exact transition moments, OPA infrastructure, MCD improvements    
  Dmitry Ganyushin       : Spin-Orbit,Spin-Spin,Magnetic field MRCI      
  Miquel Garcia-Rates    : C-PCM and meta-GGA Hessian, CCSD/C-PCM, Gaussian charge scheme 
  Tiago L. C. Gouveia    : GS-ROHF, GS-ROCIS                             
  Yang Guo               : DLPNO-NEVPT2, F12-NEVPT2, CIM, IAO-localization        
  Andreas Hansen         : Spin unrestricted coupled pair/coupled cluster methods 
  Ingolf Harden          : AUTO-CI MPn and infrastructure                
  Benjamin Helmich-Paris : MC-RPA, TRAH-(SCF,CASSCF), AVAS, COSX integrals, SCF dyn. polar. 
  Lee Huntington         : MR-EOM, pCC                                   
  Robert Izsak           : Overlap fitted RIJCOSX, COSX-SCS-MP3, EOM     
  Riya Kayal             : Wick's Theorem for AUTO-CI, AUTO-CI UHF-CCSDT 
  Emily Kempfer          : AUTO-CI, RHF CISDT and CCSDT                  
  Christian Kollmar      : KDIIS, OOCD, Brueckner-CCSD(T), CCSD density, CASPT2, CASPT2-K, improved NEVPT2 
  Axel Koslowski         : Symmetry handling                             
  Simone Kossmann        : meta-GGA functionals, TD-DFT gradient, OOMP2, (MP2 Hessian; deprecated post 5.0) 
  Lucas Lang             : DCDCAS                                        
  Marvin Lechner         : AUTO-CI (C++ implementation), FIC-MRCC        
  Spencer Leger          : CASSCF response                               
  Dagmar Lenk            : GEPOL surface, SMD, ORCA-2-JSON               
  Dimitrios Liakos       : Extrapolation schemes; Compound Job, initial MDCI parallelization 
  Dimitrios Manganas     : Further ROCIS development; embedding schemes. LFT, Crystal Embedding 
  Dimitrios Pantazis     : SARC Basis sets                               
  Anastasios Papadopoulos: AUTO-CI, single reference methods and gradients 
  Taras Petrenko         : pre 6.0 DFT Hessian and TD-DFT gradient, (ASA, deprecated), ECA, 1-Electron XAS/XES, NRVS 
  Peter Pinski           : DLPNO-MP2, DLPNO-MP2 Gradient                 
  Christoph Reimann      : Effective Core Potentials                     
  Marius Retegan         : Local ZFS, SOC                                
  Christoph Riplinger    : Optimizer, TS searches, QM/MM, DLPNO-CCSD(T), (RO)-DLPNO pert. Triples 
  Michael Roemelt        : Original ROCIS implementation                 
  Masaaki Saitow         : Open-shell DLPNO-CCSD energy and density      
  Barbara Sandhoefer     : DKH picture change effects                    
  Kantharuban Sivalingam : CASSCF convergence/infrastructure, NEVPT2 and variants, FIC-MRCI 
  Bernardo de Souza      : ESD, SOC TD-DFT                               
  Georgi L. Stoychev     : AutoAux, RI-MP2 NMR, DLPNO-MP2 response, X2C  
  Van Anh Tran           : RI-MP2 g-tensors                              
  Willem Van den Heuvel  : Paramagnetic NMR                              
  Zikuan Wang            : NOTCH, Electric field optimization            
  Frank Wennmohs         : Technical directorship and infrastructure     
  Hang Xu                : AUTO-CI-Response properties                   
                                                                         
[FACCTs GmbH]                                                            
  Markus Bursch, Miquel Garcia-Rates, Christoph Riplinger, Bernardo de Souza, Georgi L. Stoychev 
                                                                 
  APM, Basis sets (HGBS, AHGBS, def-TZVP (Ac-Lr), def2-XVPD (La-Lu)), CI-OPT, improved COSX, DLPNO-Multilevel,           
  DOCKER, DRACO, updates on ESD, GOAT, IRC, LR-CPCM, MBIS, meta-GGA TD-DFT gradient, ML-optimized integration grids, 
  MM, NACMEs, nearIR, NEB, NEB-TS, NL-DFT gradient (VV10), 2- and 3-layer-ONIOM, interface openCOSMO-RS, QMMM,   
  Crystal-QMMM, SF, symmetry and pop. for TD-DFT, r2SCAN hybrids, SOLVATOR                                   
                                                                         
[Other institutions]                                                     
  V. Asgeirsson          : NEB                                           
  Christoph Bannwarth    : sTDA-DFT, sTD-DFT, PBEh-3c, B97-3c, D3        
  Sebastian Ehlert       : rSCAN, r2SCAN, r2SCAN-3c, D4, dhf basis sets  
  Marvin Friede          : D4 for Fr, Ra, Ac-Lr                          
  Lars Goerigk           : TD-DFT with DH, B97 family of functionals     
  Stefan Grimme          : VdW corrections, initial TS optimization, DFT functionals, gCP, sTDA/sTD-DF 
  Waldemar Hujo          : DFT-NL                                        
  H. Jonsson             : NEB                                           
  Holger Kruse           : gCP                                           
  Marcel Mueller         : wB97X-3c, vDZP basis set                      
  Hagen Neugebauer       : wr2SCAN                                       
  Tobias Risthaus        : range-separated hybrid DFT                    
  Lukas Wittmann         : regularized MP2, r2SCAN double-hybrids, wr2SCAN        
                                                                         
We gratefully acknowledge several colleagues who have allowed us to      
interface, adapt or use parts of their codes:                            
  Ed Valeev, F. Pavosevic, A. Kumar             : LibInt (2-el integral package), F12 methods 
  Garnet Chan, S. Sharma, J. Yang, R. Olivares  : DMRG                   
  Ulf Ekstrom                                   : XCFun DFT Library      
  Mihaly Kallay                                 : mrcc  (arbitrary order and MRCC methods)
  Frank Weinhold                                : gennbo (NPA and NBO analysis)           
  Simon Mueller                                 : openCOSMO-RS                            
  Christopher J. Cramer and Donald G. Truhlar   : smd solvation model                     
  S Lehtola, MJT Oliveira, MAL Marques          : LibXC Library                           
  Liviu Ungur et al                             : ANISO software                          


 Your calculation uses the libint2 library for the computation of 2-el integrals
 For citations please refer to: http://libint.valeyev.net

 Your ORCA version has been built with support for libXC version: 6.2.2
 For citations please refer to: https://libxc.gitlab.io

 This ORCA versions uses:
   CBLAS   interface :  Fast vector & matrix operations
   LAPACKE interface :  Fast linear algebra routines
   SCALAPACK package :  Parallel linear algebra routines
   Shared memory     :  Shared parallel matrices
   BLAS/LAPACK       :  OpenBLAS 0.3.27  USE64BITINT DYNAMIC_ARCH NO_AFFINITY SkylakeX SINGLE_THREADED
        Core in use  :  SkylakeX
   Copyright (c) 2011-2014, The OpenBLAS Project


Your calculation utilizes the atom-pairwise dispersion correction
based on EEQ partial charges (D4)


Warning: RI is on but no J-basis has been assigned. Assigning Def2/J (nothing to worry about!)
Preparing ONIOM calculation             ...         done
================================================================================

----- Orbital basis set information -----
Your calculation utilizes the basis: def2-TZVPD
   F. Weigend and R. Ahlrichs, Phys. Chem. Chem. Phys. 7, 3297 (2005).
   D. Rappoport and F. Furche, J. Chem. Phys. 133, 134105 (2010)
   D. Rappoport, J. Chem. Phys. 155, 124102 (2021).

----- AuxJ basis set information -----
Your calculation utilizes the auxiliary basis: def2/J
   F. Weigend, Phys. Chem. Chem. Phys. 8, 1057 (2006).

================================================================================
                                        WARNINGS
                       Please study these warnings very carefully!
================================================================================


WARNING: Geometry Optimization
  ===> : Switching off AutoStart
         For restart on a previous wavefunction, please use MOREAD

WARNING: Found frequency calculation in combination with XTB calculation
  ===> : Need to redirect dipole moment calculation to properties.out

WARNING: QMMM chosen together with analytic frequencies.
         This is currently not implemented.
  ===> : Switching to numerical frequencies.

================================================================================
                                       INPUT FILE
================================================================================
NAME = geom_freq.inp
|  1> ! VERYTIGHTOPT FREQ QM/XTB B3LYP D4 Def2-TZVPD VeryTightSCF
|  2> %QMMM QMATOMS {60 61} END END
|  3> 
|  4> %PAL NPROCS 20 END
|  5> 
|  6> %SCF
|  7> MAXITER 500
|  8> END
|  9> 
| 10> %geom
| 11> MAXITER 500
| 12> end
| 13> 
| 14> * xyz 0 1
| 15>  C   -3.409809523600  -0.727516694900   0.516612711200
| 16>  C   -2.793784416300  -1.387278862900   1.640791534000
| 17>  C   -2.223579376600  -0.635935417200   2.659148517700
| 18>  C   -2.247368331700   0.803830380500   2.592883811500
| 19>  C   -2.840498093800   1.439276597300   1.510703917500
| 20>  C   -3.432736481500   0.659086382900   0.452793201900
| 21>  C   -3.119574540200  -1.498891901400  -0.666361366600
| 22>  C   -2.324336280000  -2.635203855600  -0.273104151600
| 23>  C   -2.123066145500  -2.566197357200   1.152583881600
| 24>  C   -0.907252131200  -2.949866948500   1.701049466400
| 25>  C   -0.960979279100  -1.034720203300   3.228670972300
| 26>  C   -0.999458528700   1.294639081100   3.121451938600
| 27>  C   -0.390933573800   2.402430460100   2.548200910200
| 28>  C   -1.006543899600   3.062132926200   1.424318569500
| 29>  C   -2.208257344000   2.589857358100   0.915265316000
| 30>  C   -2.409532027700   2.520962143800  -0.510459328400
| 31>  C   -3.166292557700   1.327719793600  -0.796490735400
| 32>  C   -2.886785231600   0.584902252800  -1.935380978500
| 33>  C   -2.862990804300  -0.855017113000  -1.869094030400
| 34>  C   -1.302286812600  -3.085243379200  -1.097243061000
| 35>  C   -1.036029893500  -2.416746592100  -2.346100277700
| 36>  C   -1.801475029600  -1.322728699600  -2.724871346700
| 37>  C   -1.169423351600  -0.172149022700  -3.319985811200
| 38>  C   -1.839957152500   1.006779666500  -2.832105694900
| 39>  C   -1.111550291000   2.155599548300  -2.556580729800
| 40>  C   -1.401588392900   2.926842979000  -1.373999367600
| 41>  C   -0.153865237700   3.417580968900  -0.845167745900
| 42>  C    0.039876972500   3.483962743200   0.527485551600
| 43>  C   -0.204610615000   0.158391140300   3.514469833400
| 44>  C    3.119574954500   1.498885630600   0.666371284800
| 45>  C    2.863002567600   0.855027566200   1.869079762200
| 46>  C    2.886792861100  -0.584903922700   1.935375153100
| 47>  C    3.166296510800  -1.327715183200   0.796488277200
| 48>  C    3.432734160500  -0.659095411100  -0.452788448400
| 49>  C    2.793778390600   1.387282512800  -1.640791631600
| 50>  C    2.123067873200   2.566192101100  -1.152588548100
| 51>  C    2.324342692300   2.635197550300   0.273101554300
| 52>  C    1.302276628000   3.085241623400   1.097253202000
| 53>  C    1.036026885000   2.416749642500   2.346098263900
| 54>  C    1.801471108900   1.322738877000   2.724872983000
| 55>  C    1.839949784700  -1.006786131600   2.832109999800
| 56>  C    1.111546064300  -2.155596905400   2.556582281500
| 57>  C    1.401578242100  -2.926841356600   1.374008469700
| 58>  C    2.409539967200  -2.520958560400   0.510450713100
| 59>  C    2.208259194600  -2.589854520300  -0.915266827900
| 60>  C    2.840495183000  -1.439283735100  -1.510698811700
| 61>  C    2.247358761200  -0.803830651500  -2.592888733100
| 62>  C    2.223577326400   0.635938745300  -2.659149855200
| 63>  C    0.907262093900   2.949863898100  -1.701052553600
| 64>  C    0.315427715200   2.169814922900  -2.758667204100
| 65>  C    0.960980220300   1.034730756500  -3.228671066600
| 66>  C    0.204614990600  -0.158391256000  -3.514472858000
| 67>  C    0.999453860200  -1.294652847600  -3.121448181000
| 68>  C    0.390940524500  -2.402424460900  -2.548207464000
| 69>  C    1.006558195900  -3.062128501900  -1.424320484100
| 70>  C   -0.039880151700  -3.483965433400  -0.527473437900
| 71>  C    0.153860568700  -3.417582278400   0.845165413200
| 72>  C    1.169412959800   0.172148766400   3.319991255300
| 73>  C   -0.315418424900  -2.169816184200   2.758663114500
| 74>  C    3.409807044100   0.727514099700  -0.516609351600
| 75>  H   -0.390095690900   0.002632942100   0.001199226200
| 76>  H    0.390091139200  -0.002605857700  -0.001220417800
| 77> *
| 78> 
| 79>                          ****END OF INPUT****
================================================================================

------------------------------------------------------------------------------

                             **************************
                             *    2-layered ONIOM     *
                             **************************


------------------------------------------------------------------------------




Multiscale model                       ... QM1/QM2
QM2 method                             ... XTB2
Coupling Scheme                        ... subtractive
Embedding Scheme                       ... electrostatic
PrintLevel                             ... 1
Method for determining QM2 charges     ... Hirshfeld
Charge of total system                 ... 0
Charge alteration scheme               ... Charge shifting
Scaling factor for CS scheme           ... 0.06
Gradient projection scheme             ... Lever rule
Scaling factor for QM2 charges         ... 1.00
AutoFF method                          ... XTB2
AutoFF boundary                        ... no covalent bonds
Point charges in QM calc. from MM atoms... 60
              from charge shift scheme ... 0
Printing trajectories, xyz and allxyz files:
        QMMMRegion                     ... YES
        activeRegion                   ... NO
        activeRegionExt                ... NO
        qmRegion                       ... YES
        qm2Region                      ... NO
Parameter files:
        ORCA Forcefield Filename       ... geom_freq_L_QM2.ORCAFF.prms.tmp
        QM-LA bond distances Filename  ... geom_freq.H_DIST.prms.tmp
Forcefield type                        ... ORCA
Size of different subsystems (in atoms):
Size of QMMM System                    ... 62
Size of QM2 Subsystem                  ... 60
Size of QM1 Subsystem                  ... 2
Number of link atoms                   ... 0
Size of QM1 Subsystem plus link atoms  ... 2
Size of region for optimizer           ... 62
        optimized atoms = activeRegion ... 62
        fixed atoms (distance cutoff)  ... 0 ( 0.0)
Composition of different systems (atoms start counting at 0):
QM1 Subsystem                          ...  60  61 
Active atoms                           ... All atoms 

                       *****************************
                       * Geometry Optimization Run *
                       *****************************

Geometry optimization settings:
Update method            Update   .... BFGS
Choice of coordinates    CoordSys .... (2022) Redundant Internals
Initial Hessian          InHess   .... Almloef's Model
Max. no of cycles        MaxIter  .... 500

Convergence Tolerances:
Energy Change            TolE     ....  2.0000e-07 Eh
Max. Gradient            TolMAXG  ....  3.0000e-05 Eh/bohr
RMS Gradient             TolRMSG  ....  8.0000e-06 Eh/bohr
Max. Displacement        TolMAXD  ....  2.0000e-04 bohr
RMS Displacement         TolRMSD  ....  1.0000e-04 bohr
Strict Convergence                .... False

------------------------------------------------------------------------------
                        ORCA OPTIMIZATION COORDINATE SETUP
------------------------------------------------------------------------------

The optimization will be done in redundant internal coordinates (2022)
Making redundant internal coordinates   ...  (2022 redundants) done
Evaluating the initial hessian          ...  (Almloef) done
Evaluating the coordinates              ...  done
Calculating the B-matrix                .... done
Calculating the G-matrix                .... done
Diagonalizing the G-matrix              .... done
The first mode is                       .... 4907
The number of degrees of freedom        ....  180

    -----------------------------------------------------------------
                    Redundant Internal Coordinates


    -----------------------------------------------------------------
         Definition                    Initial Value    Approx d2E/dq
    -----------------------------------------------------------------
      1. B(C   1,C   0)                  1.4417         0.516685   
      2. B(C   2,C   1)                  1.3881         0.629273   
      3. B(C   3,C   2)                  1.4415         0.517125   
      4. B(C   4,C   3)                  1.3881         0.629267   
      5. B(C   5,C   4)                  1.4417         0.516641   
      6. B(C   5,C   0)                  1.3883         0.628802   
      7. B(C   6,C   0)                  1.4418         0.516597   
      8. B(C   7,C   6)                  1.4416         0.516876   
      9. B(C   8,C   1)                  1.4415         0.517009   
     10. B(C   8,C   7)                  1.4415         0.517141   
     11. B(C   9,C   8)                  1.3879         0.629673   
     12. B(C  10,C   2)                  1.4414         0.517348   
     13. B(C  11,C   3)                  1.4414         0.517340   
     14. B(C  12,C  11)                  1.3878         0.629756   
     15. B(C  13,C  12)                  1.4413         0.517512   
     16. B(C  14,C   4)                  1.4416         0.516974   
     17. B(C  14,C  13)                  1.3879         0.629612   
     18. B(C  15,C  14)                  1.4415         0.517081   
     19. B(C  16,C   5)                  1.4418         0.516538   
     20. B(C  16,C  15)                  1.4416         0.516832   
     21. B(C  17,C  16)                  1.3882         0.629046   
     22. B(C  18,C   6)                  1.3882         0.629044   
     23. B(C  18,C  17)                  1.4416         0.516832   
     24. B(C  19,C   7)                  1.3879         0.629586   
     25. B(C  20,C  19)                  1.4413         0.517427   
     26. B(C  21,C  20)                  1.3879         0.629650   
     27. B(C  21,C  18)                  1.4415         0.517097   
     28. B(C  22,C  21)                  1.4413         0.517388   
     29. B(C  23,C  17)                  1.4415         0.517084   
     30. B(C  23,C  22)                  1.4414         0.517367   
     31. B(C  24,C  23)                  1.3879         0.629626   
     32. B(C  25,C  15)                  1.3879         0.629531   
     33. B(C  25,C  24)                  1.4413         0.517419   
     34. B(C  26,C  25)                  1.4413         0.517509   
     35. B(C  27,C  13)                  1.4413         0.517544   
     36. B(C  27,C  26)                  1.3878         0.629757   
     37. B(C  28,C  11)                  1.4413         0.517505   
     38. B(C  28,C  10)                  1.4413         0.517516   
     39. B(C  30,C  29)                  1.3881         0.629116   
     40. B(C  31,C  30)                  1.4417         0.516808   
     41. B(C  32,C  31)                  1.3881         0.629062   
     42. B(C  33,C  32)                  1.4418         0.516564   
     43. B(C  35,C  34)                  1.4415         0.517033   
     44. B(C  36,C  35)                  1.4415         0.517136   
     45. B(C  36,C  29)                  1.4416         0.516876   
     46. B(C  37,C  36)                  1.3879         0.629537   
     47. B(C  37,C  27)                  1.4413         0.517531   
     48. B(C  38,C  12)                  1.4413         0.517531   
     49. B(C  38,C  37)                  1.4413         0.517453   
     50. B(C  39,C  30)                  1.4415         0.517058   
     51. B(C  39,C  38)                  1.3879         0.629662   
     52. B(C  40,C  31)                  1.4415         0.517049   
     53. B(C  41,C  40)                  1.3879         0.629646   
     54. B(C  42,C  41)                  1.4413         0.517432   
     55. B(C  43,C  42)                  1.3880         0.629474   
     56. B(C  43,C  32)                  1.4416         0.516832   
     57. B(C  44,C  43)                  1.4415         0.517093   
     58. B(C  45,C  33)                  1.4417         0.516643   
     59. B(C  45,C  44)                  1.4416         0.516998   
     60. B(C  46,C  45)                  1.3881         0.629235   
     61. B(C  47,C  46)                  1.4415         0.517119   
     62. B(C  47,C  34)                  1.3881         0.629274   
     63. B(C  48,C  26)                  1.4413         0.517516   
     64. B(C  48,C  35)                  1.3879         0.629690   
     65. B(C  49,C  48)                  1.4413         0.517514   
     66. B(C  49,C  24)                  1.4413         0.517504   
     67. B(C  50,C  49)                  1.3878         0.629809   
     68. B(C  50,C  47)                  1.4414         0.517350   
     69. B(C  51,C  50)                  1.4413         0.517502   
     70. B(C  51,C  22)                  1.3878         0.629861   
     71. B(C  52,C  51)                  1.4413         0.517491   
     72. B(C  52,C  46)                  1.4414         0.517345   
     73. B(C  53,C  52)                  1.3878         0.629814   
     74. B(C  53,C  20)                  1.4413         0.517511   
     75. B(C  54,C  53)                  1.4413         0.517498   
     76. B(C  54,C  44)                  1.3879         0.629637   
     77. B(C  55,C  19)                  1.4413         0.517517   
     78. B(C  55,C  54)                  1.4413         0.517500   
     79. B(C  56,C   9)                  1.4413         0.517539   
     80. B(C  56,C  55)                  1.3878         0.629791   
     81. B(C  56,C  42)                  1.4413         0.517508   
     82. B(C  57,C  39)                  1.4414         0.517363   
     83. B(C  57,C  40)                  1.4414         0.517354   
     84. B(C  57,C  28)                  1.3878         0.629897   
     85. B(C  58,C   9)                  1.4413         0.517514   
     86. B(C  58,C  41)                  1.4413         0.517531   
     87. B(C  58,C  10)                  1.3878         0.629775   
     88. B(C  59,C  34)                  1.4417         0.516671   
     89. B(C  59,C  33)                  1.3883         0.628787   
     90. B(C  59,C  29)                  1.4418         0.516592   
     91. B(H  60,C  19)                  3.4020         0.000074   
     92. B(H  60,C  25)                  3.3860         0.000078   
     93. B(H  60,C  21)                  3.3437         0.000091   
     94. B(H  60,C  23)                  3.3374         0.000094   
     95. B(H  60,C   8)                  3.3057         0.000105   
     96. B(H  60,C  14)                  3.2916         0.000111   
     97. B(H  60,C   2)                  3.2915         0.000111   
     98. B(H  60,C   3)                  3.2876         0.000112   
     99. B(H  60,C  49)                  3.5793         0.000038   
    100. B(H  60,C   7)                  3.2825         0.000114   
    101. B(H  60,C  15)                  3.2683         0.000121   
    102. B(H  60,C   1)                  3.2246         0.000142   
    103. B(H  60,C  33)                  3.9062         0.000012   
    104. B(H  60,C  59)                  3.9029         0.000012   
    105. B(H  60,C  29)                  3.8729         0.000013   
    106. B(H  60,C  17)                  3.2129         0.000148   
    107. B(H  60,C  34)                  3.8406         0.000015   
    108. B(H  60,C  43)                  3.8034         0.000017   
    109. B(H  60,C  16)                  3.1780         0.000168   
    110. B(H  60,C  36)                  3.7911         0.000018   
    111. B(H  60,C  40)                  3.7425         0.000021   
    112. B(H  60,C   5)                  3.1452         0.000189   
    113. B(H  60,C  35)                  3.7708         0.000019   
    114. B(H  60,C  44)                  3.7832         0.000018   
    115. B(H  60,C  39)                  3.7368         0.000022   
    116. B(H  60,C  42)                  3.6982         0.000025   
    117. B(H  60,C  37)                  3.6835         0.000026   
    118. B(H  60,C  47)                  3.7828         0.000018   
    119. B(H  60,C  57)                  3.6709         0.000027   
    120. B(H  60,C  41)                  3.6665         0.000028   
    121. B(H  60,C  54)                  3.6573         0.000029   
    122. B(H  60,C  52)                  3.6558         0.000029   
    123. B(H  60,C   0)                  3.1492         0.000187   
    124. B(H  60,C  38)                  3.6552         0.000029   
    125. B(H  60,C  50)                  3.6500         0.000030   
    126. B(H  60,C  48)                  3.6424         0.000030   
    127. B(H  60,C  53)                  3.5908         0.000037   
    128. B(H  60,C  46)                  3.7863         0.000018   
    129. B(H  60,C  45)                  3.8473         0.000014   
    130. B(H  60,C  51)                  3.5693         0.000040   
    131. B(H  60,C  56)                  3.5646         0.000041   
    132. B(H  60,C  27)                  3.5470         0.000043   
    133. B(H  60,C  30)                  3.8468         0.000014   
    134. B(H  60,C   4)                  3.2167         0.000146   
    135. B(H  60,C  26)                  3.5262         0.000047   
    136. B(H  60,C  28)                  3.5216         0.000048   
    137. B(H  60,C  58)                  3.5112         0.000049   
    138. B(H  60,C  31)                  3.8502         0.000014   
    139. B(H  60,C   6)                  3.1859         0.000163   
    140. B(H  60,C  12)                  3.4995         0.000052   
    141. B(H  60,C   9)                  3.4459         0.000063   
    142. B(H  60,C  18)                  3.2170         0.000146   
    143. B(H  60,C  10)                  3.4378         0.000065   
    144. B(H  60,C  20)                  3.4323         0.000066   
    145. B(H  60,C  11)                  3.4317         0.000066   
    146. B(H  60,C  13)                  3.4301         0.000067   
    147. B(H  60,C  24)                  3.4202         0.000069   
    148. B(H  60,C  22)                  3.4159         0.000070   
    149. B(H  60,C  32)                  3.8795         0.000013   
    150. B(H  60,C  55)                  3.5438         0.000044   
    151. B(H  61,C  37)                  3.4020         0.000074   
    152. B(H  61,C  42)                  3.3861         0.000078   
    153. B(H  61,C  39)                  3.3437         0.000091   
    154. B(H  61,C  40)                  3.3374         0.000094   
    155. B(H  61,C  35)                  3.3057         0.000105   
    156. B(H  61,C  44)                  3.2917         0.000111   
    157. B(H  61,C  47)                  3.2915         0.000111   
    158. B(H  61,C  46)                  3.2876         0.000112   
    159. B(H  61,C  36)                  3.2825         0.000114   
    160. B(H  61,C  43)                  3.2683         0.000121   
    161. B(H  61,C  34)                  3.2245         0.000142   
    162. B(H  61,C   5)                  3.9061         0.000012   
    163. B(H  61,C  30)                  3.2170         0.000146   
    164. B(H  61,C   0)                  3.9029         0.000012   
    165. B(H  61,C  45)                  3.2167         0.000146   
    166. B(H  61,C   6)                  3.8729         0.000013   
    167. B(H  61,C  17)                  3.8502         0.000014   
    168. B(H  61,C  31)                  3.2129         0.000148   
    169. B(H  61,C   4)                  3.8473         0.000014   
    170. B(H  61,C  18)                  3.8468         0.000014   
    171. B(H  61,C   1)                  3.8406         0.000015   
    172. B(H  61,C  29)                  3.1859         0.000163   
    173. B(H  61,C  15)                  3.8034         0.000017   
    174. B(H  61,C  32)                  3.1780         0.000168   
    175. B(H  61,C   7)                  3.7911         0.000018   
    176. B(H  61,C   3)                  3.7863         0.000018   
    177. B(H  61,C  14)                  3.7832         0.000018   
    178. B(H  61,C  59)                  3.1492         0.000187   
    179. B(H  61,C   2)                  3.7828         0.000018   
    180. B(H  61,C  33)                  3.1452         0.000189   
    181. B(H  61,C   8)                  3.7708         0.000019   
    182. B(H  61,C  23)                  3.7424         0.000021   
    183. B(H  61,H  60)                  0.7802         0.215144   
    184. B(H  61,C  21)                  3.7368         0.000022   
    185. B(H  61,C  25)                  3.6981         0.000025   
    186. B(H  61,C  19)                  3.6835         0.000026   
    187. B(H  61,C  22)                  3.6708         0.000027   
    188. B(H  61,C  24)                  3.6664         0.000028   
    189. B(H  61,C  13)                  3.6572         0.000029   
    190. B(H  61,C  11)                  3.6558         0.000029   
    191. B(H  61,C  20)                  3.6552         0.000029   
    192. B(H  61,C  10)                  3.6500         0.000030   
    193. B(H  61,C   9)                  3.6424         0.000030   
    194. B(H  61,C  12)                  3.5908         0.000037   
    195. B(H  61,C  58)                  3.5793         0.000038   
    196. B(H  61,C  28)                  3.5693         0.000040   
    197. B(H  61,C  26)                  3.5645         0.000041   
    198. B(H  61,C  55)                  3.5471         0.000043   
    199. B(H  61,C  27)                  3.5438         0.000044   
    200. B(H  61,C  56)                  3.5262         0.000047   
    201. B(H  61,C  51)                  3.5216         0.000048   
    202. B(H  61,C  49)                  3.5112         0.000049   
    203. B(H  61,C  53)                  3.4995         0.000052   
    204. B(H  61,C  48)                  3.4459         0.000063   
    205. B(H  61,C  16)                  3.8794         0.000013   
    206. B(H  61,C  50)                  3.4378         0.000065   
    207. B(H  61,C  38)                  3.4323         0.000066   
    208. B(H  61,C  52)                  3.4317         0.000066   
    209. B(H  61,C  54)                  3.4301         0.000067   
    210. B(H  61,C  41)                  3.4203         0.000069   
    211. B(H  61,C  57)                  3.4159         0.000070   
    212. A(C   5,C   0,H  61)           79.8903         0.114531   
    213. A(C   1,C   0,C   5)          119.9986         0.421177   
    214. A(C   5,C   0,C   6)          119.9992         0.421164   
    215. A(C   1,C   0,H  61)           76.8469         0.113421   
    216. A(C   1,C   0,C   6)          107.9951         0.406723   
    217. A(C   6,C   0,H  61)           78.1423         0.113420   
    218. A(C   5,C   0,H  60)           77.0992         0.136780   
    219. A(C   6,C   0,H  60)           78.2717         0.134701   
    220. A(C   1,C   0,H  60)           79.8632         0.134703   
    221. A(C   2,C   1,H  61)           77.1715         0.115893   
    222. A(C   0,C   1,H  61)           81.7125         0.114719   
    223. A(H  60,C   1,H  61)            7.8001         0.092475   
    224. A(C   0,C   1,C   2)          119.9926         0.421233   
    225. A(C   0,C   1,C   8)          107.9977         0.406781   
    226. A(C   2,C   1,C   8)          120.0007         0.421280   
    227. A(C   8,C   1,H  61)           76.3696         0.114723   
    228. A(C   0,C   1,H  60)           74.0249         0.131927   
    229. A(C   2,C   1,H  60)           80.4160         0.133885   
    230. A(C   8,C   1,H  60)           80.4142         0.131933   
    231. A(C   3,C   2,H  60)           77.1911         0.129610   
    232. A(C  10,C   2,H  60)           83.3848         0.129614   
    233. A(C   1,C   2,C  10)          119.9981         0.421330   
    234. A(C  10,C   2,H  61)           73.6782         0.115993   
    235. A(C   3,C   2,H  61)           79.1553         0.115991   
    236. A(C   1,C   2,H  61)           81.8649         0.117217   
    237. A(C   3,C   2,C  10)          107.9966         0.406889   
    238. A(C   1,C   2,C   3)          120.0093         0.421297   
    239. A(C   1,C   2,H  60)           75.0130         0.131455   
    240. A(H  60,C   2,H  61)            9.8531         0.092448   
    241. A(C  11,C   3,H  60)           83.2789         0.129747   
    242. A(C   2,C   3,C   4)          120.0093         0.421297   
    243. A(C   2,C   3,C  11)          107.9967         0.406888   
    244. A(C   2,C   3,H  61)           78.8875         0.115914   
    245. A(C   4,C   3,H  60)           74.8327         0.131594   
    246. A(C   2,C   3,H  60)           77.4966         0.129743   
    247. A(H  60,C   3,H  61)            9.7560         0.092450   
    248. A(C   4,C   3,H  61)           82.0105         0.117136   
    249. A(C   4,C   3,C  11)          119.9980         0.421328   
    250. A(C  11,C   3,H  61)           73.7807         0.115916   
    251. A(H  60,C   4,H  61)            7.4877         0.092478   
    252. A(C  14,C   4,H  61)           76.6163         0.114581   
    253. A(C   5,C   4,H  61)           81.5911         0.114577   
    254. A(C   3,C   4,H  61)           77.0559         0.115745   
    255. A(C   3,C   4,H  60)           80.5542         0.134181   
    256. A(C  14,C   4,H  60)           80.1271         0.132215   
    257. A(C   3,C   4,C   5)          119.9915         0.421226   
    258. A(C   5,C   4,H  60)           74.1509         0.132208   
    259. A(C   5,C   4,C  14)          107.9982         0.406770   
    260. A(C   3,C   4,C  14)          120.0005         0.421275   
    261. A(C   4,C   5,H  60)           79.6838         0.134853   
    262. A(C   0,C   5,H  61)           79.6294         0.114463   
    263. A(C   0,C   5,H  60)           77.4178         0.136938   
    264. A(C   4,C   5,H  61)           76.9934         0.113356   
    265. A(C  16,C   5,H  60)           78.0891         0.134851   
    266. A(C   4,C   5,C  16)          107.9948         0.406709   
    267. A(C   0,C   5,C  16)          119.9985         0.421156   
    268. A(C   0,C   5,C   4)          119.9988         0.421171   
    269. A(C  16,C   5,H  61)           78.2869         0.113354   
    270. A(C   7,C   6,H  61)           75.9825         0.114042   
    271. A(C   0,C   6,H  60)           75.4270         0.133326   
    272. A(H  60,C   6,H  61)            6.0375         0.092493   
    273. A(C   0,C   6,C  18)          119.9969         0.421193   
    274. A(C   7,C   6,H  60)           80.8937         0.133331   
    275. A(C   0,C   6,C   7)          107.9951         0.406750   
    276. A(C  18,C   6,H  60)           78.7311         0.135346   
    277. A(C  18,C   6,H  61)           78.5856         0.115180   
    278. A(C   7,C   6,C  18)          119.9995         0.421234   
    279. A(C   0,C   6,H  61)           80.4914         0.114039   
    280. A(C  19,C   7,H  60)           82.8926         0.131780   
    281. A(C   6,C   7,C   8)          108.0044         0.406826   
    282. A(C   6,C   7,H  60)           73.4070         0.129912   
    283. A(C  19,C   7,H  61)           74.9596         0.117026   
    284. A(C   8,C   7,H  60)           78.2643         0.129917   
    285. A(H  60,C   7,H  61)            9.6203         0.092451   
    286. A(C   8,C   7,C  19)          119.9995         0.421337   
    287. A(C   6,C   7,H  61)           82.3673         0.115803   
    288. A(C   6,C   7,C  19)          119.9879         0.421299   
    289. A(C   8,C   7,H  61)           78.2205         0.115806   
    290. A(C   1,C   8,H  61)           81.8209         0.116260   
    291. A(C   7,C   8,C   9)          119.9957         0.421348   
    292. A(C   1,C   8,C   9)          119.9891         0.421328   
    293. A(C   9,C   8,H  60)           83.8704         0.130963   
    294. A(C   9,C   8,H  61)           74.0388         0.117504   
    295. A(C   1,C   8,H  60)           74.1190         0.129132   
    296. A(C   7,C   8,H  61)           79.8034         0.116262   
    297. A(H  60,C   8,H  61)           10.1789         0.092442   
    298. A(C   7,C   8,H  60)           76.4622         0.129134   
    299. A(C   1,C   8,C   7)          108.0077         0.406844   
    300. A(H  60,C   9,H  61)           12.2343         0.092409   
    301. A(C  56,C   9,H  61)           73.9082         0.119339   
    302. A(C  56,C   9,H  60)           82.7972         0.124725   
    303. A(C   8,C   9,C  58)          120.0059         0.421402   
    304. A(C   8,C   9,C  56)          119.9995         0.421405   
    305. A(C   8,C   9,H  61)           84.4709         0.120716   
    306. A(C  58,C   9,H  60)           80.5974         0.124724   
    307. A(C  56,C   9,C  58)          108.0035         0.406970   
    308. A(C  58,C   9,H  61)           76.0399         0.119339   
    309. A(C   8,C   9,H  60)           72.5226         0.126346   
    310. A(C  58,C  10,H  60)           81.4665         0.126599   
    311. A(C   2,C  10,C  28)          108.0002         0.406943   
    312. A(C  28,C  10,C  58)          120.0069         0.421414   
    313. A(C   2,C  10,H  61)           84.0515         0.119145   
    314. A(C  28,C  10,H  60)           81.3282         0.124965   
    315. A(C   2,C  10,H  60)           72.0028         0.124962   
    316. A(C  58,C  10,H  61)           76.0790         0.120517   
    317. A(C   2,C  10,C  58)          119.9957         0.421390   
    318. A(H  60,C  10,H  61)           12.1665         0.092410   
    319. A(C  28,C  10,H  61)           75.3531         0.119147   
    320. A(H  60,C  11,H  61)           12.1116         0.092411   
    321. A(C   3,C  11,C  12)          119.9964         0.421386   
    322. A(C  28,C  11,H  61)           75.1409         0.119003   
    323. A(C   3,C  11,H  61)           83.9736         0.119001   
    324. A(C   3,C  11,C  28)          107.9998         0.406941   
    325. A(C   3,C  11,H  60)           72.0675         0.125146   
    326. A(C  12,C  11,H  61)           76.3356         0.120366   
    327. A(C  28,C  11,H  60)           81.5586         0.125148   
    328. A(C  12,C  11,H  60)           81.2048         0.126791   
    329. A(C  12,C  11,C  28)          120.0065         0.421410   
    330. A(C  11,C  12,H  61)           81.6053         0.122108   
    331. A(C  38,C  12,H  61)           72.0461         0.120670   
    332. A(C  11,C  12,C  13)          120.0107         0.421411   
    333. A(C  38,C  12,H  60)           84.5209         0.123168   
    334. A(C  13,C  12,H  60)           75.3120         0.123168   
    335. A(C  11,C  12,H  60)           75.7208         0.124720   
    336. A(C  11,C  12,C  38)          119.9975         0.421414   
    337. A(C  13,C  12,H  61)           81.1319         0.120670   
    338. A(H  60,C  12,H  61)           12.5490         0.092403   
    339. A(C  13,C  12,C  38)          107.9986         0.406968   
    340. A(H  60,C  13,H  61)           12.0972         0.092411   
    341. A(C  14,C  13,H  60)           72.5378         0.126838   
    342. A(C  12,C  13,H  60)           80.7059         0.125196   
    343. A(C  12,C  13,C  27)          108.0034         0.406970   
    344. A(C  27,C  13,H  60)           82.6696         0.125196   
    345. A(C  14,C  13,H  61)           84.4068         0.120327   
    346. A(C  12,C  13,H  61)           75.9522         0.118967   
    347. A(C  27,C  13,H  61)           74.0651         0.118968   
    348. A(C  14,C  13,C  27)          120.0003         0.421399   
    349. A(C  12,C  13,C  14)          120.0052         0.421394   
    350. A(C  13,C  14,C  15)          119.9947         0.421332   
    351. A(C   4,C  14,C  15)          108.0076         0.406831   
    352. A(C  15,C  14,H  60)           76.4029         0.129605   
    353. A(C  13,C  14,H  61)           74.1782         0.117213   
    354. A(C   4,C  14,H  61)           81.6249         0.115982   
    355. A(C   4,C  14,C  13)          119.9891         0.421316   
    356. A(C  13,C  14,H  60)           83.7455         0.131456   
    357. A(C   4,C  14,H  60)           74.3127         0.129603   
    358. A(C  15,C  14,H  61)           79.8367         0.115983   
    359. A(H  60,C  14,H  61)            9.8502         0.092447   
    360. A(C  25,C  15,H  60)           82.7624         0.132286   
    361. A(C  16,C  15,C  25)          119.9877         0.421286   
    362. A(C  16,C  15,H  60)           73.5990         0.130396   
    363. A(H  60,C  15,H  61)            9.2379         0.092456   
    364. A(C  25,C  15,H  61)           75.0946         0.116742   
    365. A(C  14,C  15,H  61)           78.2587         0.115534   
    366. A(C  16,C  15,H  61)           82.1706         0.115531   
    367. A(C  14,C  15,C  25)          119.9989         0.421322   
    368. A(C  14,C  15,H  60)           78.2124         0.130401   
    369. A(C  14,C  15,C  16)          108.0043         0.406811   
    370. A(C   5,C  16,H  61)           80.3725         0.113901   
    371. A(C  15,C  16,H  60)           80.6044         0.133626   
    372. A(C  15,C  16,C  17)          119.9997         0.421228   
    373. A(C   5,C  16,C  15)          107.9952         0.406736   
    374. A(C  17,C  16,H  61)           78.4691         0.115037   
    375. A(C  15,C  16,H  61)           76.2281         0.113904   
    376. A(C   5,C  16,H  60)           75.5568         0.133620   
    377. A(C  17,C  16,H  60)           78.8673         0.135655   
    378. A(C   5,C  16,C  17)          119.9960         0.421185   
    379. A(H  60,C  16,H  61)            5.5753         0.092497   
    380. A(C  16,C  17,C  23)          119.9991         0.421264   
    381. A(C  16,C  17,H  61)           80.8439         0.115678   
    382. A(C  23,C  17,H  61)           74.8761         0.114520   
    383. A(H  60,C  17,H  61)            7.3374         0.092481   
    384. A(C  18,C  17,C  23)          107.9949         0.406811   
    385. A(C  18,C  17,H  60)           77.1998         0.132347   
    386. A(C  16,C  17,H  60)           76.0502         0.134319   
    387. A(C  23,C  17,H  60)           82.1648         0.132352   
    388. A(C  18,C  17,H  61)           79.0732         0.114517   
    389. A(C  16,C  17,C  18)          120.0048         0.421228   
    390. A(C   6,C  18,H  61)           80.6994         0.115753   
    391. A(C   6,C  18,H  60)           76.2325         0.134167   
    392. A(C  21,C  18,H  60)           82.2750         0.132207   
    393. A(C   6,C  18,C  21)          119.9993         0.421266   
    394. A(C  17,C  18,C  21)          107.9948         0.406813   
    395. A(H  60,C  18,H  61)            7.5042         0.092479   
    396. A(C  21,C  18,H  61)           74.7771         0.114592   
    397. A(C  17,C  18,H  60)           76.8874         0.132202   
    398. A(C   6,C  18,C  17)          120.0045         0.421227   
    399. A(C  17,C  18,H  61)           79.3366         0.114589   
    400. A(H  60,C  19,H  61)           11.7984         0.092417   
    401. A(C   7,C  19,H  60)           73.2266         0.127733   
    402. A(C  55,C  19,H  60)           83.6041         0.126052   
    403. A(C  20,C  19,H  60)           79.0036         0.126051   
    404. A(C   7,C  19,H  61)           83.7013         0.119650   
    405. A(C  20,C  19,C  55)          108.0012         0.406955   
    406. A(C   7,C  19,C  55)          119.9974         0.421392   
    407. A(C   7,C  19,C  20)          120.0094         0.421379   
    408. A(C  55,C  19,H  61)           73.2295         0.118320   
    409. A(C  20,C  19,H  61)           77.5722         0.118319   
    410. A(C  19,C  20,H  60)           76.6518         0.125130   
    411. A(C  19,C  20,C  21)          120.0122         0.421386   
    412. A(C  53,C  20,H  61)           72.3685         0.119018   
    413. A(C  21,C  20,H  60)           74.6210         0.126771   
    414. A(C  21,C  20,C  53)          119.9958         0.421399   
    415. A(C  21,C  20,H  61)           82.5095         0.120381   
    416. A(C  53,C  20,H  60)           84.4088         0.125131   
    417. A(C  19,C  20,C  53)          107.9994         0.406954   
    418. A(C  19,C  20,H  61)           79.7788         0.119017   
    419. A(H  60,C  20,H  61)           12.1173         0.092411   
    420. A(C  20,C  21,C  22)          120.0049         0.421381   
    421. A(C  18,C  21,C  20)          119.9917         0.421338   
    422. A(C  22,C  21,H  61)           76.2170         0.117046   
    423. A(C  20,C  21,H  61)           75.8834         0.118321   
    424. A(C  18,C  21,H  60)           72.4348         0.127887   
    425. A(H  60,C  21,H  61)           10.9398         0.092431   
    426. A(C  20,C  21,H  60)           81.7871         0.129659   
    427. A(C  22,C  21,H  60)           80.5091         0.127892   
    428. A(C  18,C  21,H  61)           83.3704         0.117043   
    429. A(C  18,C  21,C  22)          108.0010         0.406891   
    430. A(C  21,C  22,C  23)          108.0091         0.406928   
    431. A(C  51,C  22,H  60)           84.8285         0.127293   
    432. A(H  60,C  22,H  61)           11.9526         0.092413   
    433. A(C  23,C  22,H  61)           81.5955         0.118628   
    434. A(C  21,C  22,H  60)           74.8973         0.125625   
    435. A(C  51,C  22,H  61)           72.8794         0.119978   
    436. A(C  23,C  22,H  60)           74.6439         0.125625   
    437. A(C  21,C  22,C  51)          119.9961         0.421406   
    438. A(C  21,C  22,H  61)           81.3661         0.118629   
    439. A(C  23,C  22,C  51)          119.9949         0.421403   
    440. A(C  17,C  23,H  60)           72.5010         0.128091   
    441. A(C  17,C  23,H  61)           83.2949         0.116912   
    442. A(C  22,C  23,H  61)           76.0087         0.116916   
    443. A(H  60,C  23,H  61)           10.8266         0.092433   
    444. A(C  17,C  23,C  24)          119.9924         0.421334   
    445. A(C  17,C  23,C  22)          108.0003         0.406886   
    446. A(C  24,C  23,H  61)           76.1343         0.118185   
    447. A(C  22,C  23,C  24)          120.0048         0.421375   
    448. A(C  22,C  23,H  60)           80.7445         0.128095   
    449. A(C  24,C  23,H  60)           81.5187         0.129872   
    450. A(C  25,C  24,H  60)           76.4491         0.125493   
    451. A(C  23,C  24,C  25)          120.0122         0.421382   
    452. A(C  23,C  24,H  61)           82.3033         0.120089   
    453. A(C  49,C  24,H  61)           72.4240         0.118739   
    454. A(C  23,C  24,C  49)          119.9963         0.421395   
    455. A(C  49,C  24,H  60)           84.3887         0.125495   
    456. A(C  25,C  24,H  61)           79.9533         0.118738   
    457. A(C  25,C  24,C  49)          107.9987         0.406952   
    458. A(C  23,C  24,H  60)           74.8184         0.127151   
    459. A(H  60,C  24,H  61)           12.0006         0.092413   
    460. A(C  24,C  25,H  61)           77.4794         0.117964   
    461. A(H  60,C  25,H  61)           11.5977         0.092420   
    462. A(C  26,C  25,H  61)           73.3871         0.117965   
    463. A(C  24,C  25,C  26)          108.0010         0.406952   
    464. A(C  15,C  25,C  26)          119.9979         0.421384   
    465. A(C  15,C  25,C  24)          120.0090         0.421371   
    466. A(C  15,C  25,H  60)           73.2440         0.128250   
    467. A(C  26,C  25,H  60)           83.4784         0.126547   
    468. A(C  15,C  25,H  61)           83.6405         0.119278   
    469. A(C  24,C  25,H  60)           79.1060         0.126546   
    470. A(C  27,C  26,C  48)          120.0052         0.421412   
    471. A(C  48,C  26,H  60)           82.9682         0.122417   
    472. A(C  25,C  26,C  48)          107.9979         0.406966   
    473. A(C  27,C  26,H  60)           79.5300         0.123935   
    474. A(C  48,C  26,H  61)           73.5530         0.121369   
    475. A(C  25,C  26,C  27)          120.0025         0.421411   
    476. A(C  25,C  26,H  61)           83.8162         0.121369   
    477. A(C  27,C  26,H  61)           77.9022         0.122839   
    478. A(H  60,C  26,H  61)           12.6192         0.092402   
    479. A(C  25,C  26,H  60)           72.5620         0.122417   
    480. A(C  13,C  27,H  60)           73.5641         0.121843   
    481. A(C  26,C  27,C  37)          120.0024         0.421414   
    482. A(C  26,C  27,H  61)           79.5823         0.123428   
    483. A(C  13,C  27,H  61)           82.9135         0.121932   
    484. A(C  37,C  27,H  60)           83.8755         0.121843   
    485. A(C  37,C  27,H  61)           72.5568         0.121932   
    486. A(C  13,C  27,C  26)          120.0058         0.421416   
    487. A(C  26,C  27,H  60)           77.8416         0.123335   
    488. A(H  60,C  27,H  61)           12.6341         0.092402   
    489. A(C  13,C  27,C  37)          107.9975         0.406973   
    490. A(C  11,C  28,H  61)           81.8859         0.121241   
    491. A(C  57,C  28,H  60)           84.9965         0.124070   
    492. A(C  11,C  28,H  60)           74.5606         0.122544   
    493. A(C  57,C  28,H  61)           72.3892         0.122708   
    494. A(C  10,C  28,H  60)           74.8065         0.122545   
    495. A(C  11,C  28,C  57)          119.9992         0.421427   
    496. A(C  10,C  28,H  61)           81.6500         0.121241   
    497. A(C  10,C  28,C  57)          120.0002         0.421429   
    498. A(H  60,C  28,H  61)           12.6107         0.092401   
    499. A(C  10,C  28,C  11)          108.0066         0.406965   
    500. A(C  30,C  29,H  61)           78.7321         0.135348   
    501. A(C  36,C  29,C  59)          107.9944         0.406749   
    502. A(C  30,C  29,C  59)          119.9972         0.421201   
    503. A(C  36,C  29,H  61)           80.8931         0.133331   
    504. A(C  36,C  29,H  60)           75.9821         0.114042   
    505. A(C  59,C  29,H  60)           80.4912         0.114039   
    506. A(C  30,C  29,H  60)           78.5865         0.115181   
    507. A(H  60,C  29,H  61)            6.0374         0.092493   
    508. A(C  59,C  29,H  61)           75.4268         0.133326   
    509. A(C  30,C  29,C  36)          120.0002         0.421242   
    510. A(C  39,C  30,H  60)           74.7770         0.114591   
    511. A(C  29,C  30,H  60)           80.6990         0.115753   
    512. A(C  29,C  30,C  31)          120.0048         0.421232   
    513. A(C  31,C  30,H  61)           76.8878         0.132201   
    514. A(C  39,C  30,H  61)           82.2748         0.132206   
    515. A(C  31,C  30,H  60)           79.3369         0.114588   
    516. A(H  60,C  30,H  61)            7.5041         0.092479   
    517. A(C  29,C  30,C  39)          119.9995         0.421269   
    518. A(C  29,C  30,H  61)           76.2321         0.134168   
    519. A(C  31,C  30,C  39)          107.9942         0.406805   
    520. A(C  30,C  31,C  40)          107.9952         0.406803   
    521. A(C  30,C  31,H  60)           79.0728         0.114517   
    522. A(C  32,C  31,H  61)           76.0502         0.134318   
    523. A(C  32,C  31,C  40)          119.9991         0.421261   
    524. A(C  40,C  31,H  61)           82.1649         0.132351   
    525. A(C  32,C  31,H  60)           80.8438         0.115677   
    526. A(C  30,C  31,H  61)           77.1993         0.132346   
    527. A(H  60,C  31,H  61)            7.3373         0.092481   
    528. A(C  30,C  31,C  32)          120.0043         0.421226   
    529. A(C  40,C  31,H  60)           74.8762         0.114519   
    530. A(C  31,C  32,C  43)          119.9999         0.421230   
    531. A(C  33,C  32,C  43)          107.9946         0.406739   
    532. A(C  31,C  32,H  61)           78.8675         0.135655   
    533. A(H  60,C  32,H  61)            5.5754         0.092497   
    534. A(C  43,C  32,H  60)           76.2284         0.113904   
    535. A(C  43,C  32,H  61)           80.6047         0.133625   
    536. A(C  33,C  32,H  61)           75.5563         0.133620   
    537. A(C  31,C  32,H  60)           78.4693         0.115037   
    538. A(C  31,C  32,C  33)          119.9965         0.421191   
    539. A(C  33,C  32,H  60)           80.3721         0.113901   
    540. A(C  59,C  33,H  60)           79.6288         0.114463   
    541. A(C  45,C  33,C  59)          119.9987         0.421169   
    542. A(C  32,C  33,C  59)          119.9983         0.421158   
    543. A(C  32,C  33,H  61)           78.0899         0.134851   
    544. A(C  59,C  33,H  61)           77.4171         0.136937   
    545. A(C  45,C  33,H  61)           79.6837         0.134853   
    546. A(C  32,C  33,C  45)          107.9952         0.406713   
    547. A(C  45,C  33,H  60)           76.9934         0.113355   
    548. A(C  32,C  33,H  60)           78.2876         0.113355   
    549. A(C  35,C  34,H  61)           80.4140         0.131934   
    550. A(C  59,C  34,H  60)           81.7129         0.114719   
    551. A(C  47,C  34,H  61)           80.4160         0.133886   
    552. A(C  47,C  34,H  60)           77.1715         0.115893   
    553. A(C  35,C  34,C  47)          120.0009         0.421284   
    554. A(C  35,C  34,H  60)           76.3695         0.114724   
    555. A(C  35,C  34,C  59)          107.9979         0.406782   
    556. A(H  60,C  34,H  61)            7.8000         0.092475   
    557. A(C  59,C  34,H  61)           74.0253         0.131927   
    558. A(C  47,C  34,C  59)          119.9924         0.421232   
    559. A(C  34,C  35,H  60)           81.8211         0.116261   
    560. A(C  48,C  35,H  61)           83.8702         0.130964   
    561. A(C  36,C  35,H  61)           76.4624         0.129135   
    562. A(C  36,C  35,H  60)           79.8037         0.116262   
    563. A(C  36,C  35,C  48)          119.9959         0.421349   
    564. A(C  48,C  35,H  60)           74.0386         0.117505   
    565. A(C  34,C  35,C  48)          119.9891         0.421334   
    566. A(C  34,C  35,H  61)           74.1192         0.129133   
    567. A(H  60,C  35,H  61)           10.1789         0.092442   
    568. A(C  34,C  35,C  36)          108.0075         0.406847   
    569. A(H  60,C  36,H  61)            9.6203         0.092451   
    570. A(C  35,C  36,C  37)          119.9993         0.421331   
    571. A(C  37,C  36,H  61)           82.8923         0.131780   
    572. A(C  35,C  36,H  61)           78.2638         0.129917   
    573. A(C  37,C  36,H  60)           74.9593         0.117026   
    574. A(C  29,C  36,C  37)          119.9873         0.421293   
    575. A(C  29,C  36,C  35)          108.0050         0.406825   
    576. A(C  35,C  36,H  60)           78.2201         0.115806   
    577. A(C  29,C  36,H  60)           82.3677         0.115803   
    578. A(C  29,C  36,H  61)           73.4074         0.129913   
    579. A(C  27,C  37,H  61)           83.6038         0.126053   
    580. A(H  60,C  37,H  61)           11.7985         0.092417   
    581. A(C  38,C  37,H  60)           77.5729         0.118320   
    582. A(C  36,C  37,C  38)          120.0093         0.421377   
    583. A(C  27,C  37,C  38)          108.0015         0.406960   
    584. A(C  36,C  37,H  60)           83.7012         0.119650   
    585. A(C  27,C  37,C  36)          119.9974         0.421388   
    586. A(C  27,C  37,H  60)           73.2292         0.118321   
    587. A(C  36,C  37,H  61)           73.2263         0.127733   
    588. A(C  38,C  37,H  61)           79.0042         0.126052   
    589. A(C  12,C  38,C  39)          119.9960         0.421403   
    590. A(C  12,C  38,H  60)           72.3685         0.119019   
    591. A(C  12,C  38,H  61)           84.4088         0.125132   
    592. A(C  39,C  38,H  60)           82.5102         0.120381   
    593. A(H  60,C  38,H  61)           12.1173         0.092411   
    594. A(C  39,C  38,H  61)           74.6216         0.126772   
    595. A(C  37,C  38,C  39)          120.0125         0.421392   
    596. A(C  12,C  38,C  37)          107.9990         0.406960   
    597. A(C  37,C  38,H  60)           79.7783         0.119018   
    598. A(C  37,C  38,H  61)           76.6513         0.125131   
    599. A(C  30,C  39,C  57)          108.0012         0.406882   
    600. A(C  30,C  39,C  38)          119.9913         0.421334   
    601. A(C  30,C  39,H  61)           72.4348         0.127886   
    602. A(C  38,C  39,H  60)           75.8829         0.118321   
    603. A(C  30,C  39,H  60)           83.3703         0.117042   
    604. A(C  38,C  39,C  57)          120.0048         0.421379   
    605. A(C  57,C  39,H  60)           76.2174         0.117046   
    606. A(C  38,C  39,H  61)           81.7866         0.129659   
    607. A(C  57,C  39,H  61)           80.5094         0.127891   
    608. A(H  60,C  39,H  61)           10.9398         0.092431   
    609. A(C  31,C  40,H  60)           83.2946         0.116911   
    610. A(C  31,C  40,C  41)          119.9923         0.421331   
    611. A(C  57,C  40,H  60)           76.0085         0.116915   
    612. A(C  41,C  40,C  57)          120.0048         0.421375   
    613. A(H  60,C  40,H  61)           10.8266         0.092433   
    614. A(C  41,C  40,H  60)           76.1346         0.118184   
    615. A(C  31,C  40,C  57)          108.0003         0.406879   
    616. A(C  41,C  40,H  61)           81.5190         0.129871   
    617. A(C  57,C  40,H  61)           80.7442         0.128094   
    618. A(C  31,C  40,H  61)           72.5008         0.128089   
    619. A(C  40,C  41,C  42)          120.0126         0.421387   
    620. A(C  40,C  41,C  58)          119.9965         0.421401   
    621. A(C  40,C  41,H  60)           82.3033         0.120088   
    622. A(C  40,C  41,H  61)           74.8185         0.127150   
    623. A(C  42,C  41,H  61)           76.4493         0.125492   
    624. A(C  42,C  41,C  58)          107.9983         0.406957   
    625. A(C  58,C  41,H  61)           84.3888         0.125494   
    626. A(C  58,C  41,H  60)           72.4241         0.118739   
    627. A(C  42,C  41,H  60)           79.9534         0.118737   
    628. A(H  60,C  41,H  61)           12.0005         0.092413   
    629. A(C  41,C  42,H  60)           77.4796         0.117963   
    630. A(H  60,C  42,H  61)           11.5976         0.092420   
    631. A(C  41,C  42,C  43)          120.0089         0.421366   
    632. A(C  43,C  42,H  60)           83.6402         0.119277   
    633. A(C  56,C  42,H  60)           73.3873         0.117964   
    634. A(C  41,C  42,H  61)           79.1061         0.126545   
    635. A(C  41,C  42,C  56)          108.0017         0.406954   
    636. A(C  43,C  42,H  61)           73.2438         0.128248   
    637. A(C  56,C  42,H  61)           83.4785         0.126546   
    638. A(C  43,C  42,C  56)          119.9973         0.421377   
    639. A(C  32,C  43,H  60)           82.1704         0.115530   
    640. A(C  44,C  43,H  60)           78.2584         0.115533   
    641. A(C  32,C  43,C  44)          108.0047         0.406813   
    642. A(C  42,C  43,H  61)           82.7624         0.132284   
    643. A(C  32,C  43,C  42)          119.9872         0.421279   
    644. A(C  42,C  43,H  60)           75.0947         0.116741   
    645. A(C  42,C  43,C  44)          119.9987         0.421317   
    646. A(H  60,C  43,H  61)            9.2379         0.092456   
    647. A(C  44,C  43,H  61)           78.2121         0.130400   
    648. A(C  32,C  43,H  61)           73.5989         0.130395   
    649. A(C  43,C  44,H  60)           79.8372         0.115983   
    650. A(C  43,C  44,C  45)          108.0073         0.406836   
    651. A(C  45,C  44,C  54)          119.9891         0.421323   
    652. A(C  45,C  44,H  60)           81.6245         0.115982   
    653. A(C  45,C  44,H  61)           74.3123         0.129603   
    654. A(C  54,C  44,H  61)           83.7456         0.131455   
    655. A(C  54,C  44,H  60)           74.1784         0.117213   
    656. A(H  60,C  44,H  61)            9.8502         0.092447   
    657. A(C  43,C  44,H  61)           76.4034         0.129605   
    658. A(C  43,C  44,C  54)          119.9952         0.421336   
    659. A(C  46,C  45,H  60)           77.0553         0.115744   
    660. A(C  33,C  45,C  44)          107.9982         0.406773   
    661. A(C  33,C  45,C  46)          119.9916         0.421223   
    662. A(C  44,C  45,H  60)           76.6169         0.114581   
    663. A(C  46,C  45,H  61)           80.5535         0.134180   
    664. A(C  33,C  45,H  60)           81.5912         0.114577   
    665. A(C  44,C  45,C  46)          120.0004         0.421274   
    666. A(C  33,C  45,H  61)           74.1510         0.132208   
    667. A(H  60,C  45,H  61)            7.4877         0.092478   
    668. A(C  44,C  45,H  61)           80.1278         0.132215   
    669. A(C  52,C  46,H  60)           73.7807         0.115917   
    670. A(H  60,C  46,H  61)            9.7560         0.092450   
    671. A(C  52,C  46,H  61)           83.2790         0.129748   
    672. A(C  45,C  46,C  47)          120.0090         0.421292   
    673. A(C  47,C  46,H  61)           77.4961         0.129744   
    674. A(C  47,C  46,H  60)           78.8872         0.115914   
    675. A(C  45,C  46,H  60)           82.0108         0.117136   
    676. A(C  45,C  46,H  61)           74.8332         0.131594   
    677. A(C  47,C  46,C  52)          107.9977         0.406888   
    678. A(C  45,C  46,C  52)          119.9974         0.421325   
    679. A(C  34,C  47,C  46)          120.0096         0.421297   
    680. A(C  46,C  47,H  61)           77.1914         0.129611   
    681. A(H  60,C  47,H  61)            9.8532         0.092448   
    682. A(C  34,C  47,H  61)           75.0128         0.131456   
    683. A(C  46,C  47,H  60)           79.1555         0.115991   
    684. A(C  50,C  47,H  61)           83.3846         0.129615   
    685. A(C  46,C  47,C  50)          107.9966         0.406888   
    686. A(C  50,C  47,H  60)           73.6780         0.115994   
    687. A(C  34,C  47,C  50)          119.9977         0.421330   
    688. A(C  34,C  47,H  60)           81.8648         0.117217   
    689. A(C  26,C  48,H  60)           73.9079         0.119340   
    690. A(C  26,C  48,H  61)           82.7969         0.124725   
    691. A(C  35,C  48,H  61)           72.5227         0.126347   
    692. A(C  35,C  48,H  60)           84.4711         0.120717   
    693. A(C  49,C  48,H  60)           76.0398         0.119340   
    694. A(H  60,C  48,H  61)           12.2344         0.092409   
    695. A(C  26,C  48,C  35)          119.9998         0.421404   
    696. A(C  26,C  48,C  49)          108.0032         0.406966   
    697. A(C  35,C  48,C  49)          120.0058         0.421404   
    698. A(C  49,C  48,H  61)           80.5973         0.124725   
    699. A(C  50,C  49,H  61)           75.5245         0.124374   
    700. A(H  60,C  49,H  61)           12.5870         0.092402   
    701. A(C  24,C  49,H  60)           71.9865         0.120974   
    702. A(C  48,C  49,H  60)           80.9572         0.120974   
    703. A(C  50,C  49,H  60)           81.8136         0.122427   
    704. A(C  24,C  49,C  48)          107.9992         0.406965   
    705. A(C  24,C  49,C  50)          119.9970         0.421417   
    706. A(C  48,C  49,H  61)           75.5137         0.122836   
    707. A(C  24,C  49,H  61)           84.5393         0.122836   
    708. A(C  48,C  49,C  50)          120.0106         0.421418   
    709. A(C  47,C  50,H  61)           72.0029         0.124963   
    710. A(C  51,C  50,H  60)           75.3533         0.119147   
    711. A(C  47,C  50,H  60)           84.0517         0.119145   
    712. A(H  60,C  50,H  61)           12.1666         0.092410   
    713. A(C  49,C  50,H  61)           81.4662         0.126600   
    714. A(C  49,C  50,H  60)           76.0787         0.120518   
    715. A(C  51,C  50,H  61)           81.3283         0.124966   
    716. A(C  49,C  50,C  51)          120.0073         0.421416   
    717. A(C  47,C  50,C  51)          107.9996         0.406942   
    718. A(C  47,C  50,C  49)          119.9959         0.421394   
    719. A(C  50,C  51,H  61)           74.8061         0.122545   
    720. A(C  52,C  51,H  61)           74.5609         0.122545   
    721. A(H  60,C  51,H  61)           12.6107         0.092401   
    722. A(C  50,C  51,H  60)           81.6496         0.121242   
    723. A(C  52,C  51,H  60)           81.8861         0.121241   
    724. A(C  22,C  51,H  60)           72.3887         0.122708   
    725. A(C  22,C  51,H  61)           84.9961         0.124070   
    726. A(C  22,C  51,C  50)          119.9998         0.421422   
    727. A(C  50,C  51,C  52)          108.0074         0.406961   
    728. A(C  22,C  51,C  52)          119.9984         0.421421   
    729. A(C  46,C  52,H  61)           72.0675         0.125146   
    730. A(C  51,C  52,H  61)           81.5580         0.125148   
    731. A(C  46,C  52,C  53)          119.9971         0.421394   
    732. A(C  53,C  52,H  61)           81.2055         0.126792   
    733. A(C  46,C  52,H  60)           83.9735         0.119001   
    734. A(C  51,C  52,H  60)           75.1405         0.119003   
    735. A(C  51,C  52,C  53)          120.0071         0.421415   
    736. A(C  46,C  52,C  51)          107.9987         0.406940   
    737. A(H  60,C  52,H  61)           12.1116         0.092411   
    738. A(C  53,C  52,H  60)           76.3363         0.120367   
    739. A(C  52,C  53,H  61)           75.7205         0.124721   
    740. A(C  20,C  53,H  60)           72.0459         0.120669   
    741. A(C  54,C  53,H  60)           81.1323         0.120669   
    742. A(C  52,C  53,H  60)           81.6050         0.122109   
    743. A(H  60,C  53,H  61)           12.5490         0.092403   
    744. A(C  20,C  53,C  52)          119.9977         0.421418   
    745. A(C  54,C  53,H  61)           75.3124         0.123168   
    746. A(C  20,C  53,H  61)           84.5207         0.123168   
    747. A(C  20,C  53,C  54)          107.9986         0.406964   
    748. A(C  52,C  53,C  54)          120.0106         0.421416   
    749. A(C  44,C  54,H  61)           72.5380         0.126838   
    750. A(C  53,C  54,H  61)           80.7054         0.125195   
    751. A(C  55,C  54,H  61)           82.6697         0.125195   
    752. A(C  53,C  54,C  55)          108.0032         0.406962   
    753. A(C  53,C  54,H  60)           75.9517         0.118967   
    754. A(C  44,C  54,H  60)           84.4069         0.120327   
    755. A(C  55,C  54,H  60)           74.0653         0.118967   
    756. A(C  44,C  54,C  53)          120.0054         0.421395   
    757. A(H  60,C  54,H  61)           12.0971         0.092411   
    758. A(C  44,C  54,C  55)          120.0001         0.421395   
    759. A(C  56,C  55,H  60)           79.5829         0.123428   
    760. A(C  54,C  55,H  60)           82.9130         0.121931   
    761. A(C  19,C  55,H  61)           83.8752         0.121842   
    762. A(C  56,C  55,H  61)           77.8421         0.123334   
    763. A(H  60,C  55,H  61)           12.6340         0.092401   
    764. A(C  19,C  55,C  56)          120.0024         0.421416   
    765. A(C  54,C  55,H  61)           73.5637         0.121842   
    766. A(C  19,C  55,C  54)          107.9976         0.406965   
    767. A(C  19,C  55,H  60)           72.5566         0.121931   
    768. A(C  54,C  55,C  56)          120.0057         0.421414   
    769. A(C  55,C  56,H  60)           77.9021         0.122839   
    770. A(C  42,C  56,H  60)           83.8162         0.121368   
    771. A(H  60,C  56,H  61)           12.6191         0.092402   
    772. A(C  42,C  56,C  55)          120.0030         0.421415   
    773. A(C   9,C  56,H  60)           73.5532         0.121368   
    774. A(C  55,C  56,H  61)           79.5299         0.123935   
    775. A(C   9,C  56,C  42)          107.9971         0.406969   
    776. A(C   9,C  56,C  55)          120.0055         0.421419   
    777. A(C   9,C  56,H  61)           82.9683         0.122417   
    778. A(C  42,C  56,H  61)           72.5622         0.122416   
    779. A(C  39,C  57,C  40)          108.0091         0.406923   
    780. A(C  40,C  57,H  61)           74.6442         0.125624   
    781. A(C  39,C  57,H  61)           74.8968         0.125624   
    782. A(C  28,C  57,H  61)           84.8284         0.127293   
    783. A(C  28,C  57,C  39)          119.9960         0.421407   
    784. A(C  28,C  57,C  40)          119.9948         0.421405   
    785. A(C  39,C  57,H  60)           81.3657         0.118628   
    786. A(C  28,C  57,H  60)           72.8794         0.119977   
    787. A(H  60,C  57,H  61)           11.9526         0.092413   
    788. A(C  40,C  57,H  60)           81.5958         0.118628   
    789. A(C  10,C  58,C  41)          119.9968         0.421416   
    790. A(C   9,C  58,H  61)           80.9573         0.120973   
    791. A(C   9,C  58,C  41)          107.9994         0.406969   
    792. A(H  60,C  58,H  61)           12.5869         0.092402   
    793. A(C  10,C  58,H  61)           81.8132         0.122426   
    794. A(C  41,C  58,H  61)           71.9869         0.120973   
    795. A(C   9,C  58,C  10)          120.0106         0.421414   
    796. A(C  41,C  58,H  60)           84.5396         0.122836   
    797. A(C  10,C  58,H  60)           75.5242         0.124373   
    798. A(C   9,C  58,H  60)           75.5138         0.122835   
    799. A(C  29,C  59,H  61)           78.2718         0.134702   
    800. A(C  34,C  59,H  61)           79.8626         0.134703   
    801. A(C  29,C  59,C  33)          119.9989         0.421162   
    802. A(C  33,C  59,C  34)          119.9987         0.421173   
    803. A(C  33,C  59,H  61)           77.0997         0.136780   
    804. A(C  29,C  59,C  34)          107.9952         0.406721   
    805. A(C  34,C  59,H  60)           76.8464         0.113421   
    806. A(C  33,C  59,H  60)           79.8907         0.114531   
    807. A(C  29,C  59,H  60)           78.1424         0.113420   
    808. A(C  28,H  60,C  42)           68.8497         0.092056   
    809. A(C  42,H  60,C  48)          129.9322         0.091764   
    810. A(C  42,H  60,C  50)          111.9094         0.091746   
    811. A(C  42,H  60,C  57)           59.6785         0.091699   
    812. A(C  21,H  60,C  29)          132.5078         0.092064   
    813. A(C  38,H  60,C  42)           95.5096         0.091734   
    814. A(C  11,H  60,C  42)           92.6789         0.092293   
    815. A(C   7,H  60,C  29)          149.1848         0.092224   
    816. A(C  52,H  60,C  59)           65.3244         0.091305   
    817. A(C  30,H  60,C  31)           21.5903         0.091055   
    818. A(C  31,H  60,C  46)           73.6693         0.091161   
    819. A(C  10,H  60,C  12)           61.5490         0.092865   
    820. A(C  31,H  60,C  57)           36.0308         0.091379   
    821. A(C   4,H  60,C  19)          110.6492         0.094037   
    822. A(C  13,H  60,C  42)          129.7623         0.092297   
    823. A(C  31,H  60,C  48)           93.1588         0.091435   
    824. A(C  10,H  60,C  31)           67.8934         0.091887   
    825. A(C  31,H  60,C  38)           56.3888         0.091410   
    826. A(C  12,H  60,C  19)          149.0234         0.092982   
    827. A(C   8,H  60,C  31)           98.7787         0.092222   
    828. A(C  20,H  60,C  31)          113.3384         0.091900   
    829. A(C   1,H  60,C  19)           64.7267         0.094004   
    830. A(C   6,H  60,C  39)          145.2515         0.092912   
    831. A(C   4,H  60,C  39)           86.9589         0.092813   
    832. A(C  39,H  60,H  61)           54.4209         0.104902   
    833. A(C   7,H  60,C  12)          127.7172         0.093398   
    834. A(C  12,H  60,C  15)           65.5056         0.093450   
    835. A(C   4,H  60,C   6)           69.8905         0.095028   
    836. A(C  22,H  60,C  32)          113.0118         0.091870   
    837. A(C   1,H  60,C  12)           85.7180         0.093614   
    838. A(C  24,H  60,C  42)          151.4543         0.092324   
    839. A(C  25,H  60,C  39)           99.5629         0.092312   
    840. A(C   6,H  60,C  32)          131.8141         0.092474   
    841. A(C  13,H  60,C  39)           59.1965         0.092193   
    842. A(C  10,H  60,C  39)           61.2960         0.092172   
    843. A(C   0,H  60,C   4)           45.2744         0.095215   
    844. A(C  39,H  60,C  51)          129.5051         0.091844   
    845. A(C  26,H  60,C  39)           78.0846         0.091948   
    846. A(C  39,H  60,C  50)          109.1469         0.091659   
    847. A(C  39,H  60,C  42)           74.0463         0.091555   
    848. A(C  39,H  60,C  48)           81.1351         0.091676   
    849. A(C   4,H  60,H  61)          140.0151         0.113507   
    850. A(C   7,H  60,C  23)           85.1154         0.094032   
    851. A(C  20,H  60,C  55)           39.0186         0.092742   
    852. A(C  39,H  60,C  53)          128.7949         0.091794   
    853. A(C  15,H  60,C  23)           50.7156         0.094092   
    854. A(C  28,H  60,C  55)          100.7859         0.092474   
    855. A(C  25,H  60,C  38)           78.8556         0.092545   
    856. A(C  18,H  60,C  23)           41.6419         0.094314   
    857. A(C  14,H  60,C  22)          100.6141         0.093678   
    858. A(C  15,H  60,C  38)           80.3634         0.092909   
    859. A(C  10,H  60,C  55)           81.9283         0.092725   
    860. A(C  17,H  60,C  23)           25.3342         0.094332   
    861. A(C   6,H  60,C  23)           65.9037         0.094453   
[...]
Throughout the following assumptions are being made:
  (1) The electronic state is orbitally nondegenerate
  (2) There are no thermally accessible electronically excited states
  (3) Hindered rotations indicated by low frequency modes are not
      treated as such but are treated as vibrations and this may
      cause some error
  (4) All equations used are the standard statistical mechanics
      equations for an ideal gas
  (5) All vibrations are strictly harmonic

freq.      18.88  E(vib)   ...       0.57 
freq.      21.78  E(vib)   ...       0.56 
freq.     213.35  E(vib)   ...       0.34 
freq.     214.97  E(vib)   ...       0.34 
freq.     215.24  E(vib)   ...       0.34 
freq.     255.18  E(vib)   ...       0.30 
freq.     255.21  E(vib)   ...       0.30 
freq.     255.24  E(vib)   ...       0.30 
freq.     255.26  E(vib)   ...       0.30 
freq.     255.28  E(vib)   ...       0.30 
freq.     332.96  E(vib)   ...       0.24 
freq.     333.00  E(vib)   ...       0.24 
freq.     333.00  E(vib)   ...       0.24 
freq.     339.84  E(vib)   ...       0.23 
freq.     339.85  E(vib)   ...       0.23 
freq.     339.85  E(vib)   ...       0.23 
freq.     339.86  E(vib)   ...       0.23 
freq.     390.99  E(vib)   ...       0.20 
freq.     391.03  E(vib)   ...       0.20 
freq.     391.05  E(vib)   ...       0.20 
freq.     391.12  E(vib)   ...       0.20 
freq.     391.13  E(vib)   ...       0.20 
freq.     415.66  E(vib)   ...       0.18 
freq.     415.70  E(vib)   ...       0.18 
freq.     415.89  E(vib)   ...       0.18 
freq.     415.97  E(vib)   ...       0.18 
freq.     416.01  E(vib)   ...       0.18 
freq.     476.86  E(vib)   ...       0.15 
freq.     476.87  E(vib)   ...       0.15 
freq.     476.88  E(vib)   ...       0.15 
freq.     476.95  E(vib)   ...       0.15 
freq.     498.35  E(vib)   ...       0.14 
freq.     498.46  E(vib)   ...       0.14 
freq.     498.47  E(vib)   ...       0.14 
freq.     526.58  E(vib)   ...       0.13 
freq.     526.59  E(vib)   ...       0.13 
freq.     526.63  E(vib)   ...       0.13 
freq.     526.63  E(vib)   ...       0.13 
freq.     526.64  E(vib)   ...       0.13 
freq.     527.16  E(vib)   ...       0.13 
freq.     534.34  E(vib)   ...       0.13 
freq.     534.37  E(vib)   ...       0.13 
freq.     534.38  E(vib)   ...       0.13 
freq.     543.37  E(vib)   ...       0.12 
freq.     543.65  E(vib)   ...       0.12 
freq.     543.66  E(vib)   ...       0.12 
freq.     549.63  E(vib)   ...       0.12 
freq.     549.66  E(vib)   ...       0.12 
freq.     549.68  E(vib)   ...       0.12 
freq.     549.76  E(vib)   ...       0.12 
freq.     623.06  E(vib)   ...       0.09 
freq.     623.06  E(vib)   ...       0.09 
freq.     623.15  E(vib)   ...       0.09 
freq.     641.86  E(vib)   ...       0.09 
freq.     641.87  E(vib)   ...       0.09 
freq.     641.89  E(vib)   ...       0.09 
freq.     641.93  E(vib)   ...       0.09 
freq.     641.95  E(vib)   ...       0.09 
freq.     664.20  E(vib)   ...       0.08 
freq.     664.29  E(vib)   ...       0.08 
freq.     664.33  E(vib)   ...       0.08 
freq.     674.58  E(vib)   ...       0.08 
freq.     674.62  E(vib)   ...       0.08 
freq.     674.67  E(vib)   ...       0.08 
freq.     674.81  E(vib)   ...       0.08 
freq.     674.83  E(vib)   ...       0.08 
freq.     701.64  E(vib)   ...       0.07 
freq.     701.67  E(vib)   ...       0.07 
freq.     701.78  E(vib)   ...       0.07 
freq.     701.79  E(vib)   ...       0.07 
freq.     701.82  E(vib)   ...       0.07 
freq.     705.82  E(vib)   ...       0.07 
freq.     705.87  E(vib)   ...       0.07 
freq.     705.88  E(vib)   ...       0.07 
freq.     705.90  E(vib)   ...       0.07 
freq.     719.87  E(vib)   ...       0.07 
freq.     719.89  E(vib)   ...       0.07 
freq.     719.93  E(vib)   ...       0.07 
freq.     720.01  E(vib)   ...       0.07 
freq.     734.36  E(vib)   ...       0.06 
freq.     734.52  E(vib)   ...       0.06 
freq.     734.71  E(vib)   ...       0.06 
freq.     735.36  E(vib)   ...       0.06 
freq.     735.99  E(vib)   ...       0.06 
freq.     736.19  E(vib)   ...       0.06 
freq.     736.80  E(vib)   ...       0.06 
freq.     755.78  E(vib)   ...       0.06 
freq.     755.81  E(vib)   ...       0.06 
freq.     755.89  E(vib)   ...       0.06 
freq.     794.93  E(vib)   ...       0.05 
freq.     794.93  E(vib)   ...       0.05 
freq.     795.16  E(vib)   ...       0.05 
freq.     815.11  E(vib)   ...       0.05 
freq.     815.21  E(vib)   ...       0.05 
freq.     815.23  E(vib)   ...       0.05 
freq.     815.33  E(vib)   ...       0.05 
freq.     815.36  E(vib)   ...       0.05 
freq.     895.63  E(vib)   ...       0.03 
freq.     994.54  E(vib)   ...       0.02 
freq.     994.56  E(vib)   ...       0.02 
freq.     994.60  E(vib)   ...       0.02 
freq.     994.71  E(vib)   ...       0.02 
freq.    1012.44  E(vib)   ...       0.02 
freq.    1012.47  E(vib)   ...       0.02 
freq.    1012.56  E(vib)   ...       0.02 
freq.    1127.08  E(vib)   ...       0.01 
freq.    1127.08  E(vib)   ...       0.01 
freq.    1127.15  E(vib)   ...       0.01 
freq.    1127.17  E(vib)   ...       0.01 
freq.    1127.17  E(vib)   ...       0.01 
freq.    1128.62  E(vib)   ...       0.01 
freq.    1128.91  E(vib)   ...       0.01 
freq.    1128.99  E(vib)   ...       0.01 
freq.    1129.06  E(vib)   ...       0.01 
freq.    1217.23  E(vib)   ...       0.01 
freq.    1217.24  E(vib)   ...       0.01 
freq.    1217.46  E(vib)   ...       0.01 
freq.    1217.48  E(vib)   ...       0.01 
freq.    1217.53  E(vib)   ...       0.01 
freq.    1225.16  E(vib)   ...       0.01 
freq.    1225.63  E(vib)   ...       0.01 
freq.    1225.78  E(vib)   ...       0.01 
freq.    1227.62  E(vib)   ...       0.01 
freq.    1227.64  E(vib)   ...       0.01 
freq.    1227.90  E(vib)   ...       0.01 
freq.    1283.91  E(vib)   ...       0.01 
freq.    1283.98  E(vib)   ...       0.01 
freq.    1284.11  E(vib)   ...       0.01 
freq.    1284.23  E(vib)   ...       0.01 
freq.    1284.25  E(vib)   ...       0.01 
freq.    1285.45  E(vib)   ...       0.01 
freq.    1285.46  E(vib)   ...       0.01 
freq.    1285.55  E(vib)   ...       0.01 
freq.    1298.64  E(vib)   ...       0.01 
freq.    1298.88  E(vib)   ...       0.01 
freq.    1298.95  E(vib)   ...       0.01 
freq.    1299.02  E(vib)   ...       0.01 
freq.    1326.22  E(vib)   ...       0.01 
freq.    1326.22  E(vib)   ...       0.01 
freq.    1326.23  E(vib)   ...       0.01 
freq.    1326.24  E(vib)   ...       0.01 
freq.    1339.59  E(vib)   ...       0.01 
freq.    1339.60  E(vib)   ...       0.01 
freq.    1339.81  E(vib)   ...       0.01 
freq.    1339.85  E(vib)   ...       0.01 
freq.    1339.90  E(vib)   ...       0.01 
freq.    1346.19  E(vib)   ...       0.01 
freq.    1346.23  E(vib)   ...       0.01 
freq.    1346.36  E(vib)   ...       0.01 
freq.    1442.61  E(vib)   ...       0.00 
freq.    1442.71  E(vib)   ...       0.00 
freq.    1442.84  E(vib)   ...       0.00 
freq.    1443.23  E(vib)   ...       0.00 
freq.    1455.24  E(vib)   ...       0.00 
freq.    1455.45  E(vib)   ...       0.00 
freq.    1455.72  E(vib)   ...       0.00 
freq.    1455.95  E(vib)   ...       0.00 
freq.    1456.12  E(vib)   ...       0.00 
freq.    1481.41  E(vib)   ...       0.00 
freq.    1482.42  E(vib)   ...       0.00 
freq.    1482.43  E(vib)   ...       0.00 
freq.    1499.57  E(vib)   ...       0.00 
freq.    1499.61  E(vib)   ...       0.00 
freq.    1499.65  E(vib)   ...       0.00 
freq.    1499.79  E(vib)   ...       0.00 
freq.    1519.59  E(vib)   ...       0.00 
freq.    1531.35  E(vib)   ...       0.00 
freq.    1531.42  E(vib)   ...       0.00 
freq.    1531.64  E(vib)   ...       0.00 
freq.    1550.57  E(vib)   ...       0.00 
freq.    1550.68  E(vib)   ...       0.00 
freq.    1551.05  E(vib)   ...       0.00 
freq.    1551.23  E(vib)   ...       0.00 
freq.    1551.34  E(vib)   ...       0.00 
freq.    1560.88  E(vib)   ...       0.00 
freq.    1561.03  E(vib)   ...       0.00 
freq.    1561.20  E(vib)   ...       0.00 
freq.    1561.45  E(vib)   ...       0.00 
freq.    1561.61  E(vib)   ...       0.00 
freq.    4360.99  E(vib)   ...       0.00 

------------
INNER ENERGY
------------

The inner energy is: U= E(el) + E(ZPE) + E(vib) + E(rot) + E(trans)
    E(el)   - is the total energy from the electronic structure calculation
              = E(kin-el) + E(nuc-el) + E(el-el) + E(nuc-nuc)
    E(ZPE)  - the the zero temperature vibrational energy from the frequency calculation
    E(vib)  - the the finite temperature correction to E(ZPE) due to population
              of excited vibrational states
    E(rot)  - is the rotational thermal energy
    E(trans)- is the translational thermal energy

Summary of contributions to the inner energy U:
Electronic energy                ...   -129.64434388 Eh
Zero point energy                ...      0.37917262 Eh     237.93 kcal/mol
Thermal vibrational correction   ...      0.02253657 Eh      14.14 kcal/mol
Thermal rotational correction    ...      0.00141627 Eh       0.89 kcal/mol
Thermal translational correction ...      0.00141627 Eh       0.89 kcal/mol
-----------------------------------------------------------------------
Total thermal energy                   -129.23980215 Eh


Summary of corrections to the electronic energy:
(perhaps to be used in another calculation)
Total thermal correction                  0.02536911 Eh      15.92 kcal/mol
Non-thermal (ZPE) correction              0.37917262 Eh     237.93 kcal/mol
-----------------------------------------------------------------------
Total correction                          0.40454173 Eh     253.85 kcal/mol


--------
ENTHALPY
--------

The enthalpy is H = U + kB*T
                kB is Boltzmann's constant
Total thermal energy              ...   -129.23980215 Eh 
Thermal Enthalpy correction       ...      0.00094421 Eh       0.59 kcal/mol
-----------------------------------------------------------------------
Total Enthalpy                    ...   -129.23885794 Eh


WARNING (ORCA/SYM): The number of Z matrix atoms does not agree with
the number of centers in the basis set. The point group will therefore
be determined without considering basis set information.


Note: Rotational entropy computed according to Herzberg 
Infrared and Raman Spectra, Chapter V,1, Van Nostrand Reinhold, 1945 
Point Group:  Ci, Symmetry Number:   1  
Rotational constants in cm-1:     0.002825     0.002825     0.002825 

Vibrational entropy computed according to the QRRHO of S. Grimme
Chem.Eur.J. 2012 18 9955 using a reference frequency of 100.0 cm-1


-------
ENTROPY
-------

The entropy contributions are T*S = T*(S(el)+S(vib)+S(rot)+S(trans))
     S(el)   - electronic entropy
     S(vib)  - vibrational entropy
     S(rot)  - rotational entropy
     S(trans)- translational entropy
The entropies will be listed as multiplied by the temperature to get
units of energy

Electronic entropy                ...      0.00000000 Eh      0.00 kcal/mol
Vibrational entropy               ...      0.03432463 Eh     21.54 kcal/mol
Rotational entropy                ...      0.01782324 Eh     11.18 kcal/mol
Translational entropy             ...      0.02167233 Eh     13.60 kcal/mol
-----------------------------------------------------------------------
Final entropy term                ...      0.07382020 Eh     46.32 kcal/mol

In case the symmetry of your molecule has not been determined correctly
or in case you have a reason to use a different symmetry number we print 
out the resulting rotational entropy values for sn=1,12:

 non-linear molecules -----------------------------------
|  sn= 1 | S(rot)=       0.01782324 Eh     11.18 kcal/mol|
|  sn= 2 | S(rot)=       0.01716878 Eh     10.77 kcal/mol|
|  sn= 3 | S(rot)=       0.01678595 Eh     10.53 kcal/mol|
|  sn= 4 | S(rot)=       0.01651433 Eh     10.36 kcal/mol|
|  sn= 5 | S(rot)=       0.01630364 Eh     10.23 kcal/mol|
|  sn= 6 | S(rot)=       0.01613150 Eh     10.12 kcal/mol|
|  sn= 7 | S(rot)=       0.01598595 Eh     10.03 kcal/mol|
|  sn= 8 | S(rot)=       0.01585987 Eh      9.95 kcal/mol|
|  sn= 9 | S(rot)=       0.01574866 Eh      9.88 kcal/mol|
|  sn=10 | S(rot)=       0.01564918 Eh      9.82 kcal/mol|
|  sn=11 | S(rot)=       0.01555919 Eh      9.76 kcal/mol|
|  sn=12 | S(rot)=       0.01547704 Eh      9.71 kcal/mol|
 linear molecules ---------------------------------------
|  Dinfh | S(rot)=       0.01086745 Eh      6.82 kcal/mol|
|  Cinfv | S(rot)=       0.01152191 Eh      7.23 kcal/mol|
 --------------------------------------------------------


-------------------
GIBBS FREE ENERGY
-------------------

The Gibbs free energy is G = H - T*S

Total enthalpy                    ...   -129.23885794 Eh 
Total entropy correction          ...     -0.07382020 Eh    -46.32 kcal/mol
-----------------------------------------------------------------------
Final Gibbs free energy         ...   -129.31267814 Eh

For completeness - the Gibbs free energy minus the electronic energy
G-E(el)                           ...      0.33166574 Eh    208.12 kcal/mol



--------------------------------
SUGGESTED CITATIONS FOR THIS RUN
--------------------------------

Below you find a list of papers that are relevant to this ORCA run
We neither can nor want to force you to cite these papers, but we appreciate if you do
You receive ORCA, which is the product of decades of hard work by many enthusiastic individuals, for free
The only thing we kindly ask in return is that you cite our papers,
We deeply appreciate it, if you show your appreciation for ORCA by not just citing the generic ORCA reference.

Please note that relegating all ORCA citations to the supporting information does *not* help us.
SI sections are not indexed - citations you put there will not count into any citation statistics
But we need these citations in order to attract the funding resources that allow us to do what we are doing

Therefore, if you are a happy ORCA user, please consider citing a few of the papers listed below in the main body of your paper

In addition to the list printed below, the program has created the file geom_freq.bibtex that contains the list in bibtex format
You can import this file easily into all common literature databanks and citation aid programs


List of essential papers. We consider these as the minimum necessary citations

  1. Bannwarth,C.; Ehlert,S.; Grimme,S.
     GFN2-xTB—An Accurate and Broadly Parametrized Self-Consistent Tight-Binding Quantum Chemical Method with Multipole Electrostatics and Density-Dependent Dispersion Contributions
     J. Chem. Theory Comput., 2019 15(3)1652-1671
     doi.org/10.1021/acs.jctc.8b01176
  2. Neese,F.
     Software update: the ORCA program system, version 5.0
     WIRES Comput. Molec. Sci., 2022 12(1)e1606
     doi.org/10.1002/wcms.1606

List of papers to cite with high priority. The work reported in these papers was absolutely
necessary for this run to complete.
Our perspective: the developers of density functionals and basis sets usually get cited in chemistry papers
Good! But without the algorithms to do something with them, the functionals or basis sets would not do anything.
Hence, in our opinion, the algorithm design and method developments papers are equally worthy of getting cited

  1. Neese,F.
     An improvement of the resolution of the identity approximation for the formation of the Coulomb matrix
     J. Comp. Chem., 2003 24(14)1740-1747
     doi.org/10.1002/jcc.10318
  2. Neese,F.; Wennmohs,F.; Hansen,A.; Becker,U.
     Efficient, approximate and parallel Hartree-Fock and hybrid DFT calculations. A 'chain-of-spheres' algorithm for the Hartree-Fock exchange
     Chem. Phys., 2009 356(1-3)98-109
     doi.org/10.1016/j.chemphys.2008.10.036
  3. Bykov,D.; Petrenko,T.; Izsak,R.; Kossmann,S.; Becker,U.; Valeev,E.; Neese,F.
     Efficient implementation of the analytic second derivatives of Hartree-Fock and hybrid DFT energies: a detailed analysis of different approximations
     Molec. Phys., 2015 113 1961-1977
     doi.org/10.1080/00268976.2015.1025114
  4. Bannwarth,C.; Caldeweyher,E.; Ehlert,S.; Hansen,A.; Pracht,P.; Seibert,J.; Spicher,S.; Grimme,S.
     Extended tight-binding quantum chemistry methods
     WIRES Comput. Molec. Sci., 2020 11(2)e1493
     doi.org/10.1002/wcms.1493
  5. Helmich-Paris,B.; de Souza,B.; Neese,F.; Izsák,R.
     An improved chain of spheres for exchange algorithm
     J. Chem. Phys., 2021 155 104109
     doi.org/doi: 10.1063/5.0058766.
  6. Neese,F.
     The SHARK Integral Generation and Digestion System
     J. Comp. Chem., 2022  1-16
     doi.org/10.1002/jcc.26942
  7. Caldeweyher,E.; Bannwarth,C.; Grimme,S.
     Extension of the D3 dispersion coefficient model
     J. Chem. Phys., 2017 147 034112
     doi.org/10.1063/1.4993215
  8. Caldeweyher,E.; Ehlert,S.; Hansen,A.; Neugebauer,H.; Spicher,S.; Bannwarth,C.; Grimme,S.
     A generally applicable atomic-charge dependent London dispersion correction
     J. Chem. Phys., 2019 150 154122
     doi.org/10.1063/1.5090222
  9. Caldeweyher,E.; Mewes,J.; Ehlert,S.; Grimme,S.
     Extension and evaluation of the D4 London-dispersion model for periodic systems
     Phys. Chem. Chem. Phys., 2020 22(16)8499-8512
     doi.org/10.1039/D0CP00502A
 10. Wittmann,L.; Gordiy,I.; Friede,M.; Helmich-Paris,B.; Grimme,S.; Hansen,A.; Bursch,M.
     Extension of the D3 and D4 London Dispersion Corrections to the full Actinides Series
     Phys. Chem. Chem. Phys., 2024 26(32)21379-21394
     doi.org/https://doi.org/10.1039/D4CP01514B 

List of suggested additional citations. These are papers that are important in the 'surrounding' of 
of this run, or papers that preceded the highly important papers. If you like your results we are grateful for a citation.

  1. Izsak,R.; Neese,F.
     An overlap fitted chain of spheres exchange method
     J. Chem. Phys., 2011 135 144105
     doi.org/10.1063/1.3646921
  2. Izsak,R.; Hansen,A.; Neese,F.
     The resolution of identity and chain of spheres approximations for the LPNO-CCSD singles Fock term
     Molec. Phys., 2012 110 2413-2417
     doi.org/10.1080/00268976.2012.687466
  3. Neese,F.
     The ORCA program system
     WIRES Comput. Molec. Sci., 2012 2(1)73-78
     doi.org/10.1002/wcms.81
  4. Izsak,R.; Neese,F.; Klopper,W.
     Robust fitting techniques in the chain of spheres approximation to the Fock exchange: The role of the complementary space
     J. Chem. Phys., 2013 139 
     doi.org/10.1063/1.4819264
  5. Neese,F.
     Software update: the ORCA program system, version 4.0
     WIRES Comput. Molec. Sci., 2018 8(1)1-6
     doi.org/10.1002/wcms.1327
  6. Neese,F.; Wennmohs,F.; Becker,U.; Riplinger,C.
     The ORCA quantum chemistry program package
     J. Chem. Phys., 2020 152 Art. No. L224108
     doi.org/10.1063/5.0004608

List of optional additional citations

  1. Neese,F.
     Approximate second-order SCF convergence for spin unrestricted wavefunctions
     Chem. Phys. Lett., 2000 325(1-3)93-98
     doi.org/10.1016/s0009-2614(00)00662-x

Timings for individual modules:

Sum of individual times          ...      441.223 sec (=   7.354 min)
Startup calculation              ...        9.285 sec (=   0.155 min)   2.1 %
SCF iterations                   ...       25.933 sec (=   0.432 min)   5.9 %
Property calculations            ...        0.726 sec (=   0.012 min)   0.2 %
SCF Gradient evaluation          ...        8.269 sec (=   0.138 min)   1.9 %
Geometry relaxation              ...      313.347 sec (=   5.222 min)  71.0 %
Numerical frequency calculation  ...       76.612 sec (=   1.277 min)  17.4 %
XTB module                       ...        3.572 sec (=   0.060 min)   0.8 %
ONIOM_Small energy and gradient  ...        1.214 sec (=   0.020 min)   0.3 %
ONIOM_Large energy and gradient  ...        2.264 sec (=   0.038 min)   0.5 %
                             ****ORCA TERMINATED NORMALLY****
TOTAL RUN TIME: 0 days 0 hours 7 minutes 30 seconds 735 msec
